# vtk DataFile Version 5.1
vtk output
ASCII
DATASET POLYDATA
POINTS 35404 double
0.4599803984 0.3880192041 2 -1.540067673 0.2475730628 2 0.3048504889 -1.718233824 2 
-1.551680207 -1.72020638 2 -3.178933144 0.5389270186 2 0.6736561656 -3.635571718 2 
-3.419843912 -1.66811347 2 0.2422410399 3.904042006 2 3.930217266 0.1214704514 2 
-1.57248044 -3.673998117 2 -3.430538416 2.223709822 2 -3.531101227 -3.64509511 2 
-5.273013115 0.3819194436 2 -4.958120823 -1.885591745 2 -3.291619301 4.166493416 2 
3.958593845 -3.620592117 2 3.873285055 3.800844908 2 0.3229209781 -5.558524609 2 
-4.337604046 -3.661399603 2 -5.47265625 -1.909746528 2 -1.590793729 -5.581872463 2 
-5.357131004 2.308501244 2 -5.336833954 -2.738254786 2 -5.920835018 -1.068318009 2 
-6.035556316 -0.3868878484 2 -6.101776123 -0.4572493136 2 -5.126411438 -3.648892641 2 
-3.534313917 -5.60133934 2 -6.41877079 -1.841985464 2 -6.708199978 -0.2786782384 2 
-6.641726494 -1.014833093 2 -5.407463074 4.062570572 2 -6.203903675 -2.724880457 2 
-3.977021694 -5.607653618 2 -5.215672016 -4.646425724 2 -6.084948063 -3.654696226 2 
-7.193240166 -1.622988582 2 0.6390882134 -7.392074585 2 -6.955002785 -2.588940859 2 
0.1365518421 7.45138073 2 -6.998565197 -2.584429026 2 -7.439209938 -0.7932418585 2 
-7.540949821 0.1933520734 2 7.561660767 0.03786871955 2 -5.078250885 -5.605364799 2 
-5.986850262 -4.633253574 2 -7.499882221 1.16717732 2 -6.714895725 -3.572733402 2 
-1.618240595 -7.464201927 2 -6.829378128 -3.55952692 2 -7.371850967 2.284322739 2 
-6.578753471 -4.58771944 2 -6.600684166 -4.584032536 2 -7.933590889 -1.457262158 2 
-8.022986412 -1.447162747 2 -7.787713051 -2.472929239 2 -8.091205597 -1.235091686 2 
-5.989492416 -5.606832027 2 -7.503781796 -3.457851648 2 3.739763975 7.392093182 2 
-8.26829052 -0.5705341101 2 -3.512751818 7.512431145 2 -3.554807186 -7.508888245 2 
3.960808277 -7.314161777 2 -8.342303276 0.3303771615 2 -6.563199043 -5.192761898 2 
-3.702486515 -7.510751247 2 -5.195878029 -6.577324867 2 7.522617817 3.729494095 2 
7.593370438 -3.671287537 2 -7.277588844 -4.500522614 2 -7.363973141 4.422939301 2 
-6.52924633 -5.589563847 2 -6.554323673 -5.589080811 2 -8.458862305 -2.327645302 2 
-8.14491272 -3.510029078 2 -5.961782455 -6.583132267 2 -6.040908337 -6.583831787 2 
-3.569525003 -8.218978882 2 -8.941868782 -1.243575692 2 -7.116487503 -5.562525749 2 
-7.74263525 -4.654776096 2 -5.086416721 -7.532887936 2 -9.053764343 -0.8779588938 2 
-9.148927689 -0.4361501336 2 0.2335167825 -9.226256371 2 -9.240408897 0.5523197055 2 
-6.623060226 -6.594257832 2 -7.531709194 -5.686749935 2 -1.6682024 -9.300085068 2 
-9.303191185 1.7738657 2 -9.042258263 -2.877373934 2 -9.299059868 2.214105844 2 
-6.007564545 -7.554902077 2 -7.078963757 -6.600176811 2 -8.466231346 -4.705142021 2 
-9.072117805 -3.810502052 2 -3.116803646 -9.396515846 2 -9.835810661 -1.234273076 2 
-8.150927544 -5.679993629 2 -5.231910229 -8.488348007 2 -7.471522808 -6.620699406 2 
-6.512112617 -7.571738243 2 -9.798373222 -1.946739435 2 -6.569824219 -7.574221134 2 
-10.03167057 -0.3251324296 2 -10.07553577 -0.3080334663 2 -3.581652164 -9.42457962 2 
-10.16061687 -0.3097446859 2 -9.318932533 4.083062172 2 -10.19807148 0.4677408636 2 
-9.102154732 -4.749143124 2 -8.684913635 -5.673846722 2 -8.008291245 -6.603420734 2 
-7.108009338 -7.604050159 2 -6.03055048 -8.513634682 2 7.444404125 7.34270525 2 
-7.327150822 7.529990196 2 -10.1123991 -2.864628792 2 7.646395206 -7.320446968 2 
-7.514351845 -7.535068989 2 -6.456864357 -8.546655655 2 -8.466505051 -6.588655472 2 
-9.131575584 -5.66855526 2 -5.142594814 -9.468654633 2 -6.668337345 -8.566674232 2 
0.3439116478 -10.86949539 2 -10.86462402 -0.8973386884 2 -7.979893208 -7.509413242 2 
-10.96272373 -0.4391206801 2 -6.675793171 -8.755378723 2 -8.847615242 -6.576367855 2 
-11.0338335 -0.2271373868 2 0.04755436257 11.06953621 2 -11.02496052 -1.499989271 2 
-11.12913513 0.6596549749 2 2.026139975 -11.00692654 2 11.21788692 0.00667675538 2 
-7.185203075 -8.615885735 2 -8.3747015 -7.487856865 2 -9.160303116 -6.566282272 2 
-1.711371064 -11.14720249 2 -6.126614571 -9.483847618 2 -11.09421349 -2.219393015 2 
3.880213261 -10.63282299 2 -1.978752494 -11.16670418 2 3.436491489 10.87049007 2 
-3.359541655 10.90602684 2 -11.23992729 1.991405964 2 -7.610854626 -8.520651817 2 
-11.23893547 2.228414774 2 -8.702087402 -7.470079899 2 -11.15502071 -2.852211475 2 
-1.724378586 -11.46777534 2 -8.970276833 -7.455569267 2 -8.050702095 -8.459823608 2 
-6.734169006 -9.54459095 2 -5.346814156 -10.39571285 2 11.19806957 3.710614681 2 
-3.526431799 -11.27906609 2 -9.188383102 -7.443796635 2 11.25697899 -3.711996794 2 
-6.992781162 -9.582828522 2 -8.425731659 -8.408111572 2 -12.01160145 -0.7456405163 2 
-11.22454166 4.415143013 2 -12.06852818 -0.2229208499 2 -12.09054852 -0.09006413817 2 
-8.737894058 -8.36514473 2 -7.359298706 -9.640412331 2 -6.230240345 -10.41548729 2 
-12.14980125 0.6191651225 2 -12.11751175 -1.264380455 2 -8.994311333 -8.329890251 2 
5.450983524 10.99355888 2 -12.13409328 -1.876110315 2 -5.403557777 11.03614998 2 
5.722736835 -10.95579815 2 -12.14822006 -2.401815653 2 -9.215763092 -8.299432755 2 
-7.843626976 -9.64846611 2 -12.15994549 -2.840243101 2 -5.424848557 -11.2928381 2 
-8.198037148 -9.517586708 2 -6.953830242 -10.51027203 2 -8.496963501 -9.406840324 2 
-7.163433075 -10.54274368 2 -8.743988037 -9.315148354 2 0.02706456929 -12.78488445 2 
0.01845950633 -12.8352356 2 0.1506383121 -12.83673763 2 -8.945878983 -9.240119934 2 
7.379532337 10.5878973 2 -9.109800339 -9.179150581 2 -7.340977192 10.6476965 2 
-9.24233532 -9.129827499 2 1.935117602 -12.85204792 2 -6.388319969 -11.33703423 2 
-7.601552486 -10.60783195 2 7.653103828 -10.5884676 2 -13.06911373 -0.6565275788 2 
-13.08664894 -0.1821983755 2 -13.09450626 -0.03942923248 2 -1.787191987 -12.99012756 2 
-13.11097622 0.7651031613 2 -13.11032963 -1.168549657 2 -13.11770248 -1.697527528 2 
-13.14008617 2.045688152 2 -13.12393188 -2.148114204 2 1.938494802 -13.17629337 2 
-13.13961887 2.232419729 2 11.18754005 7.315648556 2 -13.12907887 -2.522184134 2 
3.522685289 12.93492985 2 -3.494213104 12.94840622 2 -13.13328266 -2.828651428 2 
3.774396896 -12.89946938 2 -7.126296043 -11.46018124 2 -11.20753002 7.532524109 2 
11.35556221 -7.368332863 2 -8.491867065 -10.5435276 2 -8.247238159 -10.73776054 2 
-8.695357323 -10.38143826 2 -8.862215042 -10.24826622 2 -5.774079323 -12.25819874 2 
-8.997934341 -10.13980675 2 -9.107782364 -10.05194378 2 -9.196404457 -9.981013298 2 
-9.267745972 -9.923887253 2 -3.52917099 -13.18189049 2 3.771435261 -13.15045547 2 
-13.13434982 4.079524994 2 -7.757834435 -11.54109955 2 -6.499934673 -12.29955196 2 
-7.841562748 -11.54057121 2 5.381515026 12.88840675 2 -5.363186836 12.90664864 2 
-14.05901146 -0.1584331691 2 -14.06289482 -0.0185907688 2 -14.05133152 -0.6223335862 2 
-14.07574463 0.6497700214 2 5.730234146 -12.87539196 2 -14.06682777 -1.131886601 2 
-14.0725565 -1.601343393 2 -10.14342403 -9.952135086 2 -10.0941925 -10.00818634 2 
-14.07739544 -1.999124408 2 -10.03287315 -10.07796097 2 -9.956586838 -10.16470051 2 
-9.86183548 -10.27232742 2 -9.744427681 -10.40549946 2 -14.08139515 -2.328592539 2 
-9.599471092 -10.56958771 2 -9.421536446 -10.77039909 2 -14.08466434 -2.598209143 2 
-7.260168552 -12.36418056 2 9.305527687 10.91645527 2 -8.485133171 -11.57697773 2 
-14.08731842 -2.817289352 2 -9.29544735 10.9714222 2 -5.540805817 -13.32537079 2 
5.727987766 -13.26350594 2 9.584999084 -10.95114422 2 -7.845131874 -12.40478802 2 
7.293476105 12.76237202 2 -9.220980644 -11.46080589 2 -7.281968594 12.78419685 2 
-10.22930145 -10.60836315 2 -10.42461586 -10.45245075 2 -10.58279705 -10.326087 2 
2.80540514 -14.53193569 2 -10.71044064 -10.22406673 2 3.804226875 -14.31145859 2 
14.80976582 -0.00339748431 2 1.820050359 -14.69839954 2 -10.81319904 -10.14190578 2 
-10.89578915 -10.07585239 2 -6.487040997 -13.35223198 2 -10.96209431 -10.02281189 2 
-11.01528072 -9.980259895 2 0.009080004878 14.86897182 2 7.647576332 -12.78194046 2 
7.28169775 12.99959183 2 -0.1754920781 -14.95549679 2 -7.999446392 -12.65669537 2 
-15.01441765 -0.1410168111 2 -15.01654148 -0.008406004868 2 -1.907095551 -14.89650631 2 
-15.00827694 -0.6117105484 2 -15.0204649 0.7803647518 2 -15.0119133 -1.11441803 2 
-15.0170393 -1.542476892 2 -8.612903595 -12.41856194 2 -9.940854073 -11.38573933 2 
-15.02136326 -1.903838038 2 0.8753845692 -15.11684227 2 -15.02798653 2.080231667 2 
-15.02493668 -2.202666044 2 -15.02781296 2.234212399 2 3.118582964 14.88127232 2 
-3.109880924 14.88810444 2 -7.15564537 -13.42595959 2 -10.20045567 -11.29834843 2 
-15.02785778 -2.447025299 2 4.831994057 -14.45891762 2 -15.03023052 -2.645507812 2 
14.82499504 3.747667789 2 -15.03214836 -2.806036472 2 -10.41215611 -11.22732067 2 
14.85886383 -3.774238586 2 5.270396709 14.43472672 2 -10.58376026 -11.16987514 2 
11.19976425 10.5861702 2 -9.180015564 -12.38547325 2 3.892510653 -14.93951321 2 
-3.690702677 -14.99676228 2 5.775784492 -14.32832336 2 -10.72233582 -11.12355995 2 
8.726177216 12.76657772 2 -11.21497917 10.64772987 2 2.811632156 -15.22263241 2 
-10.83395863 -11.08629608 2 4.865712643 -14.74853992 2 -10.92371464 -11.05635834 2 
-8.617741585 -12.95774555 2 -10.99579716 -11.03233051 2 -8.065263748 -13.33729553 2 
2.796413422 -15.34774971 2 2.446000099 -15.40966988 2 -15.02123547 4.417248726 2 
5.036166668 14.82522488 2 1.694812894 -15.57517147 2 -9.683783531 -12.32305145 2 
5.242827892 14.81812954 2 -5.244197369 14.82985878 2 9.278860092 12.70621586 2 
9.2774086 12.76746178 2 -9.277056694 12.78972054 2 -9.997282982 -12.25632477 2 
0.7521861792 -15.80876446 2 3.908705711 -15.38524914 2 -0.2441322654 -15.90714836 2 
11.65710258 -10.83795261 2 -8.649384499 -13.372509 2 -10.25576687 -12.2015295 2 
-15.95854092 -0.1319940239 2 -15.96039295 -0.002458480187 2 -7.232211113 -14.23099327 2 
[...]
POINT_DATA 35404
SCALARS Magnitud_velocity float
LOOKUP_TABLE default
4.09226 4.31548 3.34821 3.31101 3.86905 2.04613 2.56696 4.35268 3.72024 
2.30655 4.12946 1.93452 3.79464 1.93452 4.83631 1.67411 4.12946 1.78571 
1.4881 1.97173 2.23214 4.05506 1.30208 2.90179 3.34821 3.34821 1.07887 
1.86012 1.78571 3.23661 2.64137 4.87351 1.00446 1.74851 1.5253 0.818452 
1.5253 1.5253 0.78125 6.13839 0.78125 2.38095 2.90179 3.79464 1.67411 
0.93006 3.31101 0.372024 2.26935 0.334821 3.64583 0.334821 0.334821 1.5253 
1.45089 0.706845 1.5625 1.00446 0.409226 5.54315 2.23214 6.39881 2.04613 
1.11607 2.90179 0.483631 2.04613 1.74851 4.79911 1.45089 0.297619 4.6875 
0.558036 0.558036 0.520833 0.0372024 1.37649 1.30208 2.00893 1.41369 0.334821 
0.186012 1.93452 1.82292 2.19494 1.4881 2.82738 0.78125 0.186012 1.5997 
3.23661 0 3.53423 1.5997 0.372024 0.14881 0 2.08333 1.19048 
0.186012 1.93452 0.297619 1.22768 0.558036 1.19048 2.08333 2.08333 1.97173 
2.04613 4.6503 2.71577 0 0.14881 0.260417 0.78125 1.86012 5.91518 
6.47321 0 0.892857 0.297619 1.4881 0.14881 0 1.93452 1.4881 
1.41369 1.5997 0.260417 1.74851 1.4881 0.186012 1.89732 6.77083 0.967262 
2.64137 1.5253 4.50149 1.30208 0.223214 0 1.6369 1.89732 1.04167 
1.30208 1.67411 6.62202 7.66369 3.01339 0.669643 3.0878 0.186012 0 
1.6369 0.14881 0.260417 1.82292 1.86012 5.02232 1.82292 0 2.34375 
1.5625 0.223214 1.4881 4.27827 1.74851 1.74851 0.186012 1.41369 1.86012 
2.56696 1.11607 0.111607 6.95685 0.892857 8.14732 1.26488 1.04167 0 
1.19048 0 1.86012 0.483631 1.86012 0.260417 1.74851 0.223214 1.78571 
1.82292 1.82292 0.14881 7.47768 0.14881 7.92411 0 1.71131 1.86012 
1.67411 1.07887 1.5253 1.71131 1.71131 1.89732 2.64137 1.07887 0.818452 
2.97619 0.892857 1.86012 3.27381 5.72917 0.967262 6.73363 7.7381 0 
1.5253 1.82292 5.84077 1.45089 0.558036 1.22768 0.372024 0.223214 1.86012 
0.14881 0.14881 0.14881 0 1.71131 1.4881 4.12946 1.74851 1.82292 
1.74851 6.84524 8.18452 1.71131 1.78571 1.5997 2.64137 1.30208 1.11607 
0.818452 0 0.0372024 0.93006 0.0744048 0.0372024 0.0372024 0.0372024 1.00446 
0.0744048 0.297619 0.967262 1.74851 7.99851 1.30208 0 7.44048 1.74851 
1.26488 1.15327 1.71131 7.62649 1.07887 8.96577 0.0744048 0.0372024 0.0372024 
2.38095 0.0372024 2.12054 4.57589 2.38095 0.0372024 0.0372024 1.78571 0.0372024 
0 5.87798 1.26488 7.51488 1.97173 1.74851 1.74851 1.71131 2.00893 
1.5997 2.49256 1.15327 0.78125 1.67411 0.260417 0.855655 2.38095 3.1994 
0.892857 3.23661 5.17113 7.51488 1.74851 0.111607 1.00446 1.89732 1.00446 
5.13393 0 0.14881 3.53423 5.72917 0.0744048 7.8125 1.67411 2.15774 
1.5625 1.41369 0 7.51488 6.54762 2.86458 0 1.67411 0.0372024 
1.78571 0 1.74851 2.86458 3.01339 4.05506 5.69196 3.23661 1.37649 
5.72917 9.26339 7.55208 7.55208 7.99851 0.967262 2.71577 2.34375 2.15774 
1.37649 1.78571 0.558036 1.71131 1.78571 1.71131 1.22768 1.89732 1.33929 
1.07887 1.30208 1.15327 0.855655 1.74851 0.260417 1.5253 1.5253 0.93006 
1.00446 0.260417 1.07887 3.0878 0.93006 1.04167 0.14881 7.7753 3.125 
0 3.31101 0.0372024 0 1.41369 1.86012 8.11012 9.4494 1.67411 
2.38095 1.86012 3.31101 3.0878 2.60417 6.2128 1.30208 1.82292 1.41369 
4.27827 2.00893 1.41369 1.89732 2.38095 1.67411 5.76637 1.86012 2.15774 
1.71131 1.71131 1.74851 1.74851 1.33929 1.97173 1.15327 1.67411 0.967262 
1.11607 9.97024 1.74851 0.967262 0 7.8497 1.5253 1.04167 3.125 
7.29167 3.1622 3.45982 7.66369 1.07887 7.8497 1.15327 0.446429 6.58482 
1.04167 0 3.38542 2.90179 4.6131 5.69196 4.98512 7.29167 6.02679 
1.5625 1.4881 1.67411 1.67411 3.49702 10.119 1.74851 4.42708 3.68304 
3.49702 10.0818 6.13839 1.5625 9.00298 6.3244 3.23661 1.5997 4.20387 
4.24107 1.26488 0 6.25 3.1622 1.71131 5.09673 1.78571 0 
10.2679 1.4881 1.78571 0.520833 1.78571 1.37649 7.8125 6.62202 1.78571 
2.64137 1.15327 1.30208 1.07887 1.26488 10.0446 1.07887 1.82292 1.15327 
1.19048 2.19494 1.26488 4.50149 0 2.30655 1.04167 5.35714 1.41369 
0 7.66369 2.23214 4.09226 2.23214 1.5253 9.07738 2.23214 1.67411 
1.82292 0 3.75744 9.22619 3.79464 1.74851 1.74851 5.65476 6.2872 
10.2679 7.8125 1.74851 4.09226 0 7.10565 6.99405 8.96577 3.42262 
7.25446 0 6.54762 3.45982 1.30208 6.99405 7.66369 4.94792 3.49702 
7.8497 1.5625 4.09226 3.60863 10.2307 6.06399 1.37649 10.2307 3.98065 
7.8125 1.71131 3.57143 4.7619 2.93899 3.49702 1.82292 1.6369 1.4881 
5.65476 1.6369 1.82292 1.37649 1.26488 1.19048 5.13393 1.04167 9.00298 
1.89732 5.05952 1.22768 1.82292 5.09673 1.30208 2.60417 1.33929 3.125 
4.12946 3.1622 1.82292 1.22768 1.33929 5.76637 1.07887 0 1.5625 
1.74851 0.93006 5.39435 2.23214 1.78571 7.7381 0.855655 3.90625 1.71131 
5.17113 7.8125 0 1.82292 1.30208 1.71131 5.02232 1.15327 0 
7.8497 5.20833 1.93452 1.82292 7.8125 2.19494 5.50595 2.26935 6.2872 
3.68304 2.23214 3.94345 2.15774 3.98065 1.93452 6.77083 1.78571 1.67411 
3.1622 0 3.86905 6.73363 5.31994 3.68304 2.19494 5.20833 5.35714 
1.93452 1.6369 1.30208 1.71131 4.05506 4.01786 4.01786 7.70089 4.09226 
1.74851 4.31548 1.78571 7.92411 1.93452 7.7753 2.12054 7.7753 3.53423 
4.31548 1.74851 1.19048 1.11607 0.818452 1.71131 6.95685 0.855655 1.41369 
7.62649 0.892857 5.02232 4.94792 0.892857 7.58929 6.91964 1.22768 2.97619 
2.23214 1.6369 1.19048 2.26935 0 6.80804 1.15327 1.67411 1.07887 
2.30655 1.5253 0 2.52976 0.520833 1.82292 2.60417 0.409226 0 
2.49256 3.79464 6.73363 4.98512 2.56696 2.56696 2.52976 1.86012 8.11012 
1.11607 6.47321 0.595238 8.07292 0.93006 5.20833 5.28274 1.67411 4.87351 
7.99851 1.78571 7.62649 1.82292 2.82738 1.78571 1.6369 3.57143 0 
5.05952 1.37649 3.49702 3.86905 3.90625 1.93452 2.19494 2.26935 2.41815 
2.23214 2.12054 4.01786 4.09226 1.78571 0 1.22768 1.22768 3.01339 
7.99851 4.09226 3.57143 0 1.67411 8.14732 0.93006 0.706845 0.93006 
4.98512 0.706845 3.27381 1.74851 1.82292 5.54315 4.09226 0.744048 1.82292 
0 0.706845 8.11012 3.42262 0.93006 2.52976 8.48214 5.17113 3.1994 
1.45089 1.04167 0.558036 7.99851 2.19494 2.00893 1.04167 2.75298 1.04167 
0 0 7.66369 7.99851 0.520833 2.45536 0 1.5625 1.6369 
1.86012 7.99851 2.45536 2.04613 2.04613 0.595238 4.98512 3.57143 3.01339 
2.41815 3.01339 4.12946 8.44494 6.88244 0 1.6369 2.00893 1.93452 
1.78571 0.520833 1.82292 1.71131 6.73363 0.706845 0 7.44048 6.73363 
1.89732 3.64583 8.11012 7.44048 1.89732 2.49256 1.5997 0 1.78571 
4.53869 0 4.94792 0.967262 8.11012 1.78571 4.24107 1.82292 7.18006 
1.82292 4.24107 1.97173 8.44494 7.96131 5.09673 1.89732 4.05506 0.818452 
0.669643 0 1.00446 6.13839 2.19494 2.15774 4.6875 2.30655 2.45536 
0.63244 1.22768 2.23214 2.19494 8.48214 1.78571 7.7381 0 0.63244 
4.27827 0.520833 1.97173 3.1994 0.63244 4.05506 2.26935 1.33929 1.97173 
2.52976 1.89732 0.892857 2.82738 1.33929 1.97173 0 6.80804 0.967262 
0.558036 4.94792 2.19494 1.00446 0.818452 0 1.97173 3.86905 0.595238 
0 1.6369 2.52976 7.96131 3.1994 0 2.45536 8.33333 1.97173 
1.97173 0.63244 1.97173 8.44494 1.89732 8.14732 4.98512 2.08333 2.56696 
1.67411 1.93452 0 0.520833 1.41369 6.10119 2.67857 0.78125 0 
5.31994 7.8869 7.8869 2.45536 8.48214 8.48214 7.62649 2.00893 3.45982 
0 2.67857 2.82738 1.30208 0.892857 1.89732 0.892857 4.98512 4.6131 
2.97619 8.37054 3.27381 4.50149 0 4.53869 8.55655 2.79018 2.00893 
0 0.520833 0.669643 0.78125 0.818452 1.45089 3.27381 0.595238 4.05506 
1.45089 1.26488 0.63244 0.558036 1.07887 5.80357 2.56696 0.63244 4.6131 
4.24107 4.6131 0.78125 2.30655 1.6369 2.49256 0.558036 0.93006 2.71577 
1.78571 8.81696 8.14732 6.36161 0.967262 2.00893 8.55655 2.82738 0.818452 
0 6.36161 0.558036 2.34375 2.34375 2.41815 2.60417 2.30655 6.2872 
2.04613 2.30655 4.94792 1.89732 1.6369 1.5253 0 1.78571 0 
2.52976 1.22768 6.2872 2.52976 0.63244 8.81696 3.49702 1.67411 0 
2.90179 7.8869 1.97173 1.5625 2.04613 0 8.59375 3.45982 7.29167 
1.5997 0.595238 8.37054 1.5625 0 5.02232 3.42262 0 2.41815 
4.6131 3.0878 2.04613 3.1994 2.52976 0.669643 7.58929 1.97173 1.07887 
8.89137 1.5997 2.04613 4.05506 1.5625 4.94792 2.00893 0.93006 0.78125 
2.56696 8.55655 7.99851 7.99851 1.97173 2.56696 2.00893 8.81696 6.80804 
2.75298 1.33929 2.56696 2.45536 0 8.77976 0.520833 4.94792 7.03125 
6.02679 0.892857 0.558036 1.78571 2.82738 4.94792 0 1.07887 8.55655 
5.54315 4.57589 1.07887 0.669643 0.818452 0.855655 1.07887 0.483631 0.669643 
1.26488 0 2.00893 1.97173 0.669643 0.483631 1.78571 0.595238 7.8497 
0.744048 2.30655 0.744048 4.20387 3.45982 2.82738 0.78125 0.520833 0.818452 
5.28274 4.46429 0.967262 0 2.12054 7.8497 8.92857 1.86012 3.98065 
4.87351 0.520833 2.56696 7.51488 1.86012 8.37054 2.56696 0 1.26488 
4.53869 2.23214 1.30208 2.08333 0 8.85417 0 0.595238 1.26488 
2.75298 2.45536 2.38095 2.52976 2.60417 3.45982 2.41815 2.19494 1.33929 
2.45536 2.04613 2.52976 4.09226 0 0.63244 2.30655 8.85417 2.56696 
2.90179 7.92411 2.08333 2.26935 0 1.00446 1.86012 0 2.04613 
2.56696 0.744048 1.97173 8.59375 2.04613 0.78125 3.01339 5.65476 0.78125 
2.34375 4.87351 6.58482 2.90179 0 4.79911 3.57143 5.65476 0.446429 
1.97173 2.08333 7.8497 0.483631 1.07887 4.05506 5.87798 8.55655 0.372024 
8.11012 0.744048 2.90179 2.38095 4.27827 4.57589 2.23214 4.05506 0.520833 
0.63244 0.855655 0.855655 5.87798 0.669643 1.11607 4.53869 5.05952 2.34375 
0.63244 1.5997 1.6369 2.15774 0.595238 0.558036 3.01339 7.92411 0.669643 
5.95238 2.08333 2.08333 2.26935 0.706845 2.15774 2.79018 1.04167 7.47768 
4.01786 8.59375 1.04167 0.595238 0 0 1.26488 4.42708 2.52976 
2.34375 0 1.30208 2.52976 2.26935 3.53423 7.92411 8.44494 0.558036 
1.71131 1.41369 1.22768 0 4.79911 8.89137 7.96131 6.77083 1.33929 
2.00893 3.23661 2.52976 0 0.558036 7.58929 1.41369 3.01339 1.74851 
1.67411 4.79911 8.89137 7.92411 1.5997 8.59375 7.58929 5.95238 2.56696 
2.90179 2.00893 3.68304 2.45536 8.89137 0.706845 1.4881 2.79018 1.78571 
1.11607 2.34375 2.08333 4.79911 2.86458 7.70089 2.34375 2.71577 2.67857 
2.67857 2.67857 2.34375 2.86458 2.52976 7.44048 2.08333 2.34375 8.11012 
0 8.51935 2.08333 0.409226 2.86458 1.67411 1.86012 1.5253 0 
8.63095 0.446429 5.20833 2.00893 0 7.8497 4.6131 0.483631 4.46429 
2.90179 2.71577 0.409226 0.967262 2.90179 0.967262 1.26488 7.47768 4.94792 
2.26935 2.19494 0.409226 1.5625 2.86458 3.83185 8.89137 2.15774 8.40774 
0.409226 2.93899 7.99851 4.01786 1.67411 0 0.706845 0.855655 0.63244 
0.595238 1.04167 7.32887 2.30655 0 0.520833 1.33929 0.520833 0.595238 
2.49256 0.63244 0 2.41815 0.706845 7.92411 8.92857 0.967262 6.47321 
3.83185 1.00446 1.71131 0 2.56696 1.15327 1.67411 0.558036 2.56696 
5.17113 3.79464 1.74851 1.74851 1.93452 8.59375 2.00893 8.92857 1.41369 
2.30655 2.26935 1.74851 2.90179 5.02232 5.43155 1.74851 3.83185 2.56696 
1.6369 0.558036 2.79018 8.81696 2.52976 2.26935 1.89732 0 2.30655 
7.96131 8.59375 2.30655 0 7.70089 1.78571 7.66369 3.38542 2.56696 
2.38095 1.5997 4.05506 5.35714 4.38988 5.31994 2.97619 0.669643 2.38095 
1.30208 7.96131 2.86458 0.818452 4.01786 5.35714 0 0 8.92857 
5.65476 1.86012 0.409226 3.94345 5.20833 6.13839 1.78571 0 0.409226 
8.11012 8.40774 6.91964 0.334821 2.90179 1.67411 1.6369 2.34375 0.334821 
0 6.95685 6.13839 2.60417 3.23661 0.967262 9.07738 4.53869 0 
0.334821 2.93899 7.96131 2.04613 1.45089 1.71131 2.23214 3.01339 3.125 
2.82738 2.75298 4.16667 2.82738 2.67857 2.75298 2.38095 1.41369 0 
0.446429 7.96131 2.64137 1.5997 9.07738 2.15774 2.64137 2.30655 2.04613 
0.669643 0.669643 0.595238 8.51935 0.967262 0.520833 0 4.01786 7.14286 
0.595238 0.520833 1.37649 0.520833 8.92857 3.83185 3.125 0.63244 1.26488 
4.87351 0.669643 1.5625 1.04167 2.67857 5.02232 2.79018 1.89732 2.67857 
1.04167 1.07887 7.8125 0 0 2.71577 1.86012 1.74851 2.30655 
1.4881 3.68304 2.97619 5.02232 8.63095 1.33929 1.6369 1.5625 2.49256 
7.99851 2.56696 2.56696 3.125 7.62649 1.86012 1.82292 4.7619 0.558036 
3.0506 2.52976 1.41369 3.49702 2.45536 2.71577 2.04613 7.92411 2.52976 
1.5625 9.04018 2.04613 0 2.60417 1.71131 7.66369 5.20833 6.88244 
4.16667 0 1.30208 1.67411 5.39435 8.40774 1.37649 2.60417 2.86458 
0.558036 9.07738 5.84077 6.10119 7.70089 2.15774 2.04613 1.5625 2.15774 
1.74851 0.967262 8.11012 2.90179 3.125 2.38095 9.07738 2.30655 0 
2.08333 3.0506 7.7381 1.5625 1.71131 0.967262 2.04613 2.90179 2.30655 
1.5253 8.66815 3.68304 1.5625 8.70536 2.71577 2.67857 2.34375 3.79464 
4.09226 2.64137 0.93006 1.86012 4.38988 1.45089 0 2.15774 1.5625 
2.90179 8.03571 0 2.71577 1.41369 5.02232 0.706845 0.706845 1.71131 
2.30655 0.483631 1.67411 1.07887 0.520833 8.70536 0.967262 0.520833 8.03571 
1.6369 1.5997 0.558036 7.7381 7.8497 0.63244 1.97173 2.67857 2.64137 
0.63244 1.41369 3.1994 2.71577 4.98512 1.04167 8.11012 5.31994 3.57143 
0.967262 6.69643 4.05506 3.1622 3.23661 0 2.90179 2.90179 2.75298 
2.71577 2.86458 2.45536 0 0 0 1.5997 8.70536 7.7381 
1.71131 7.66369 2.93899 3.64583 2.75298 1.6369 2.12054 2.67857 0.409226 
4.38988 0 2.67857 2.60417 3.1994 1.71131 0.446429 2.60417 1.5625 
4.16667 0.409226 4.6503 8.22173 9.04018 0.409226 5.31994 8.29613 2.71577 
2.60417 5.17113 5.50595 1.5625 0.334821 2.30655 1.5997 1.82292 1.71131 
1.67411 2.71577 0.409226 7.51488 0.334821 9.04018 3.38542 2.08333 2.60417 
7.18006 6.1756 3.23661 1.15327 0.372024 0 1.67411 0.483631 2.26935 
8.70536 1.6369 1.71131 1.6369 2.71577 7.25446 2.71577 8.48214 1.37649 
8.77976 0.706845 2.93899 5.58036 0.744048 2.49256 0.483631 2.08333 3.27381 
0 3.79464 2.19494 7.18006 2.93899 0.818452 0.669643 1.22768 2.64137 
1.19048 6.43601 2.93899 1.67411 2.71577 1.78571 4.7619 0 0.967262 
1.86012 2.64137 0.409226 2.97619 4.98512 0 1.5253 0 8.70536 
1.74851 2.41815 0 1.4881 0 2.71577 2.71577 1.30208 1.22768 
7.8869 7.21726 2.23214 3.31101 0 1.41369 4.94792 3.86905 6.25 
1.26488 0.669643 0.63244 8.70536 0.558036 1.07887 0.855655 0.558036 2.19494 
1.78571 3.01339 0 1.78571 0.483631 0.520833 2.79018 0.818452 2.79018 
7.10565 0.595238 0.669643 3.1994 1.30208 7.18006 0.669643 0 3.72024 
2.86458 0.669643 0 4.7619 9.07738 2.71577 1.26488 0.297619 4.35268 
2.82738 0.409226 1.5253 8.18452 4.98512 1.30208 6.3244 0.372024 2.79018 
1.97173 3.23661 2.82738 2.79018 4.98512 0.297619 2.19494 1.86012 0.260417 
8.77976 2.60417 0.297619 0.297619 2.19494 2.08333 0 1.5997 2.75298 
4.7247 1.22768 5.58036 3.34821 2.97619 1.33929 7.44048 8.77976 3.38542 
0.372024 6.43601 3.1622 3.23661 2.97619 2.15774 2.97619 2.67857 2.82738 
7.14286 6.80804 2.75298 0.855655 2.82738 2.45536 8.63095 0 2.04613 
0.372024 2.64137 3.38542 0 2.60417 1.93452 1.30208 6.2872 0.446429 
1.41369 0.483631 4.7619 4.09226 3.79464 2.45536 0.334821 1.86012 2.60417 
2.00893 5.87798 3.34821 2.19494 2.19494 7.40327 3.34821 1.11607 1.5253 
0.334821 1.6369 8.70536 0 1.4881 2.67857 2.67857 0.855655 5.46875 
4.98512 0 2.86458 3.1622 6.43601 2.71577 4.42708 0 2.86458 
0 3.45982 6.91964 2.64137 3.49702 2.67857 1.45089 0 2.45536 
3.125 6.69643 8.70536 2.67857 0 2.26935 2.26935 2.45536 5.72917 
0 1.00446 1.37649 0.855655 2.86458 2.79018 4.7619 2.86458 8.85417 
1.41369 3.31101 0 0.595238 0.297619 0.63244 4.7619 0.520833 0.558036 
0.595238 7.36607 0.297619 7.25446 5.54315 2.56696 2.30655 0.483631 2.79018 
3.0878 2.67857 0.446429 0.372024 2.86458 0.520833 4.01786 8.81696 0.63244 
0.297619 2.60417 0.669643 0.706845 4.98512 1.5625 0 7.14286 0.297619 
8.37054 2.82738 2.00893 3.27381 5.39435 5.91518 0.260417 5.20833 2.00893 
3.72024 8.63095 0 1.5253 4.46429 2.79018 2.79018 0.372024 2.86458 
2.71577 0 2.97619 1.89732 2.56696 6.51042 7.32887 3.98065 4.83631 
2.60417 1.5253 7.21726 2.75298 2.79018 7.21726 5.58036 3.49702 0.409226 
1.37649 4.38988 8.70536 2.86458 3.53423 0.669643 2.34375 0 1.15327 
2.79018 4.98512 7.10565 2.90179 2.49256 0.744048 3.49702 3.42262 6.69643 
2.67857 2.75298 1.00446 7.25446 4.01786 2.82738 7.8869 8.51935 4.87351 
3.57143 3.68304 3.31101 3.31101 3.0878 2.67857 3.0506 2.75298 2.56696 
0 0 1.5253 2.86458 2.97619 2.45536 2.75298 2.71577 5.39435 
0 3.53423 2.86458 0 8.81696 5.72917 1.45089 6.1756 6.06399 
5.95238 4.83631 1.22768 2.26935 4.98512 0 2.82738 0.967262 6.91964 
3.72024 0.297619 2.82738 3.31101 8.40774 2.86458 1.45089 0.297619 2.60417 
1.41369 2.56696 0 1.22768 0.297619 3.86905 3.125 4.98512 1.4881 
0.297619 0 8.29613 2.23214 0.520833 0.558036 0.558036 0.520833 2.23214 
3.27381 0.520833 0.520833 0.334821 2.00893 0.483631 0.78125 0 0.446429 
0.595238 0.297619 7.29167 0.818452 0.63244 1.6369 0.558036 3.42262 5.91518 
0 1.86012 0.706845 2.79018 5.91518 1.86012 5.91518 5.91518 0.372024 
3.98065 1.26488 6.65923 1.33929 1.5625 5.72917 4.79911 2.79018 2.97619 
2.86458 4.83631 3.86905 3.27381 8.03571 7.03125 0 3.90625 6.91964 
3.42262 3.57143 0.446429 1.5997 2.52976 1.93452 2.86458 2.82738 4.91071 
3.42262 1.19048 6.95685 7.06845 8.11012 1.19048 1.45089 2.90179 4.31548 
6.13839 3.72024 3.68304 2.00893 2.00893 2.00893 2.79018 2.79018 0.706845 
2.82738 3.68304 1.15327 3.34821 2.86458 8.40774 2.52976 2.45536 3.57143 
2.90179 7.06845 4.09226 3.45982 0 3.45982 4.7619 2.23214 5.65476 
4.7619 0 6.39881 8.40774 1.67411 2.82738 0 0.818452 3.79464 
2.86458 0 2.26935 0.260417 7.7753 3.68304 0.260417 0.297619 2.04613 
1.45089 2.93899 0 0 3.53423 3.98065 3.34821 3.0878 0.334821 
3.1622 4.98512 5.54315 3.1622 2.64137 2.71577 0 3.79464 1.5253 
6.43601 0.669643 0.297619 2.26935 3.86905 1.97173 2.23214 0.520833 0.520833 
0.520833 0.520833 6.69643 0.446429 3.0506 0.297619 5.80357 3.23661 0.520833 
4.7619 3.86905 3.98065 0.483631 1.30208 5.43155 4.7619 0.483631 0.520833 
0.297619 1.78571 0.558036 3.90625 0 2.79018 0.409226 0 6.47321 
2.56696 1.5625 3.90625 2.82738 3.45982 2.38095 4.7619 6.02679 0.483631 
2.08333 7.58929 6.77083 6.02679 1.5253 2.90179 6.77083 2.90179 3.90625 
7.32887 4.91071 3.45982 3.90625 0.669643 2.90179 2.75298 3.68304 1.26488 
3.31101 2.93899 7.8869 2.90179 6.95685 0.669643 3.42262 1.07887 3.86905 
3.72024 2.71577 7.32887 3.42262 0.93006 7.8125 6.39881 2.67857 2.79018 
4.7619 0 6.95685 0 2.15774 3.57143 6.84524 0 3.94345 
2.45536 4.35268 5.20833 2.79018 0 1.71131 4.94792 3.1994 2.38095 
0.818452 0 5.65476 0.223214 6.25 1.97173 2.08333 0.223214 2.97619 
3.0878 0.297619 3.86905 1.71131 1.6369 0.297619 1.33929 2.90179 3.83185 
3.31101 3.98065 2.90179 1.74851 5.28274 3.1994 0.260417 1.4881 3.72024 
2.26935 0 0.669643 2.26935 6.1756 0.297619 4.50149 0.520833 0.483631 
1.26488 3.1994 4.05506 0.483631 0.446429 0.446429 4.79911 0.483631 1.22768 
0.483631 0.446429 0.334821 2.93899 0 0.409226 2.64137 0.483631 1.5997 
2.19494 3.49702 0.669643 0.483631 0.93006 5.76637 0.372024 0 1.86012 
4.20387 6.51042 2.79018 3.75744 3.38542 3.42262 4.01786 5.84077 3.125 
3.1622 4.79911 3.1622 3.49702 2.71577 0 7.25446 1.6369 2.75298 
2.90179 0.520833 6.77083 4.24107 3.34821 6.69643 0 2.79018 3.64583 
1.33929 1.19048 4.6503 2.86458 5.17113 1.30208 5.61756 4.09226 5.72917 
2.93899 1.30208 6.25 2.71577 0.855655 6.2872 6.91964 2.71577 1.86012 
4.79911 6.80804 2.86458 0 6.2872 4.6875 3.49702 0.669643 4.50149 
0.855655 1.82292 2.71577 2.56696 3.53423 6.51042 2.64137 3.98065 3.98065 
0.669643 3.98065 2.56696 2.67857 2.49256 3.42262 3.01339 3.72024 0 
5.50595 0 2.12054 1.86012 1.67411 6.91964 0 2.08333 4.05506 
5.98958 5.98958 3.60863 0.818452 4.31548 3.90625 4.91071 1.30208 3.72024 
4.31548 0 1.86012 2.82738 4.09226 0.186012 0 4.20387 0.223214 
1.71131 4.87351 0 0.260417 6.1756 3.53423 4.16667 3.83185 0.223214 
4.01786 7.06845 1.71131 5.61756 0.334821 4.20387 2.04613 2.23214 5.65476 
0.669643 3.57143 5.65476 0.334821 2.60417 6.58482 6.25 3.34821 0.520833 
0.483631 4.35268 0.483631 0.483631 0.446429 0.483631 0.334821 3.49702 4.87351 
2.64137 0.409226 2.19494 3.64583 0.483631 4.01786 1.37649 3.68304 0.446429 
3.23661 3.64583 0.446429 3.1622 0.409226 6.43601 3.45982 2.49256 2.04613 
4.31548 0 4.83631 2.79018 3.0506 2.56696 3.64583 1.19048 3.72024 
2.67857 4.12946 0 6.25 6.65923 0.558036 3.1994 6.06399 2.86458 
2.60417 6.02679 3.79464 0.744048 4.05506 0 6.06399 4.79911 0.63244 
3.53423 2.67857 2.75298 0.558036 6.73363 3.57143 3.31101 4.01786 0.669643 
0 3.1994 3.23661 3.23661 2.75298 0 4.01786 2.71577 4.12946 