# vtk DataFile Version 2.0
sampleSurface
ASCII
DATASET POLYDATA
POINTS 35404 double
0.4599803984 0.3880192041 2
-1.540067673 0.2475730628 2
0.3048504889 -1.718233824 2
-1.551680207 -1.72020638 2
-3.178933144 0.5389270186 2
0.6736561656 -3.635571718 2
-3.419843912 -1.66811347 2
0.2422410399 3.904042006 2
3.930217266 0.1214704514 2
-1.57248044 -3.673998117 2
-3.430538416 2.223709822 2
-3.531101227 -3.64509511 2
-5.273013115 0.3819194436 2
-4.958120823 -1.885591745 2
-3.291619301 4.166493416 2
3.958593845 -3.620592117 2
3.873285055 3.800844908 2
0.3229209781 -5.558524609 2
-4.337604046 -3.661399603 2
-5.47265625 -1.909746528 2
-1.590793729 -5.581872463 2
-5.357131004 2.308501244 2
-5.336833954 -2.738254786 2
-5.920835018 -1.068318009 2
-6.035556316 -0.3868878484 2
-6.101776123 -0.4572493136 2
-5.126411438 -3.648892641 2
-3.534313917 -5.60133934 2
-6.41877079 -1.841985464 2
-6.708199978 -0.2786782384 2
-6.641726494 -1.014833093 2
-5.407463074 4.062570572 2
-6.203903675 -2.724880457 2
-3.977021694 -5.607653618 2
-5.215672016 -4.646425724 2
-6.084948063 -3.654696226 2
-7.193240166 -1.622988582 2
0.6390882134 -7.392074585 2
-6.955002785 -2.588940859 2
0.1365518421 7.45138073 2
-6.998565197 -2.584429026 2
-7.439209938 -0.7932418585 2
-7.540949821 0.1933520734 2
7.561660767 0.03786871955 2
-5.078250885 -5.605364799 2
-5.986850262 -4.633253574 2
-7.499882221 1.16717732 2
-6.714895725 -3.572733402 2
-1.618240595 -7.464201927 2
-6.829378128 -3.55952692 2
-7.371850967 2.284322739 2
-6.578753471 -4.58771944 2
-6.600684166 -4.584032536 2
-7.933590889 -1.457262158 2
-8.022986412 -1.447162747 2
-7.787713051 -2.472929239 2
-8.091205597 -1.235091686 2
-5.989492416 -5.606832027 2
-7.503781796 -3.457851648 2
3.739763975 7.392093182 2
-8.26829052 -0.5705341101 2
-3.512751818 7.512431145 2
-3.554807186 -7.508888245 2
3.960808277 -7.314161777 2
-8.342303276 0.3303771615 2
-6.563199043 -5.192761898 2
-3.702486515 -7.510751247 2
-5.195878029 -6.577324867 2
7.522617817 3.729494095 2
7.593370438 -3.671287537 2
-7.277588844 -4.500522614 2
-7.363973141 4.422939301 2
-6.52924633 -5.589563847 2
-6.554323673 -5.589080811 2
-8.458862305 -2.327645302 2
-8.14491272 -3.510029078 2
-5.961782455 -6.583132267 2
-6.040908337 -6.583831787 2
-3.569525003 -8.218978882 2
-8.941868782 -1.243575692 2
-7.116487503 -5.562525749 2
-7.74263525 -4.654776096 2
-5.086416721 -7.532887936 2
-9.053764343 -0.8779588938 2
-9.148927689 -0.4361501336 2
0.2335167825 -9.226256371 2
-9.240408897 0.5523197055 2
-6.623060226 -6.594257832 2
-7.531709194 -5.686749935 2
-1.6682024 -9.300085068 2
-9.303191185 1.7738657 2
-9.042258263 -2.877373934 2
-9.299059868 2.214105844 2
-6.007564545 -7.554902077 2
-7.078963757 -6.600176811 2
-8.466231346 -4.705142021 2
-9.072117805 -3.810502052 2
-3.116803646 -9.396515846 2
-9.835810661 -1.234273076 2
-8.150927544 -5.679993629 2
-5.231910229 -8.488348007 2
-7.471522808 -6.620699406 2
-6.512112617 -7.571738243 2
-9.798373222 -1.946739435 2
-6.569824219 -7.574221134 2
-10.03167057 -0.3251324296 2
-10.07553577 -0.3080334663 2
-3.581652164 -9.42457962 2
-10.16061687 -0.3097446859 2
-9.318932533 4.083062172 2
-10.19807148 0.4677408636 2
-9.102154732 -4.749143124 2
-8.684913635 -5.673846722 2
-8.008291245 -6.603420734 2
-7.108009338 -7.604050159 2
-6.03055048 -8.513634682 2
7.444404125 7.34270525 2
-7.327150822 7.529990196 2
-10.1123991 -2.864628792 2
7.646395206 -7.320446968 2
-7.514351845 -7.535068989 2
-6.456864357 -8.546655655 2
-8.466505051 -6.588655472 2
-9.131575584 -5.66855526 2
-5.142594814 -9.468654633 2
-6.668337345 -8.566674232 2
0.3439116478 -10.86949539 2
-10.86462402 -0.8973386884 2
-7.979893208 -7.509413242 2
-10.96272373 -0.4391206801 2
-6.675793171 -8.755378723 2
-8.847615242 -6.576367855 2
-11.0338335 -0.2271373868 2
0.04755436257 11.06953621 2
-11.02496052 -1.499989271 2
-11.12913513 0.6596549749 2
2.026139975 -11.00692654 2
11.21788692 0.00667675538 2
-7.185203075 -8.615885735 2
-8.3747015 -7.487856865 2
-9.160303116 -6.566282272 2
-1.711371064 -11.14720249 2
-6.126614571 -9.483847618 2
-11.09421349 -2.219393015 2
3.880213261 -10.63282299 2
-1.978752494 -11.16670418 2
3.436491489 10.87049007 2
-3.359541655 10.90602684 2
-11.23992729 1.991405964 2
-7.610854626 -8.520651817 2
-11.23893547 2.228414774 2
-8.702087402 -7.470079899 2
-11.15502071 -2.852211475 2
-1.724378586 -11.46777534 2
-8.970276833 -7.455569267 2
-8.050702095 -8.459823608 2
-6.734169006 -9.54459095 2
-5.346814156 -10.39571285 2
11.19806957 3.710614681 2
-3.526431799 -11.27906609 2
-9.188383102 -7.443796635 2
11.25697899 -3.711996794 2
-6.992781162 -9.582828522 2
-8.425731659 -8.408111572 2
-12.01160145 -0.7456405163 2
-11.22454166 4.415143013 2
-12.06852818 -0.2229208499 2
-12.09054852 -0.09006413817 2
-8.737894058 -8.36514473 2
-7.359298706 -9.640412331 2
-6.230240345 -10.41548729 2
-12.14980125 0.6191651225 2
-12.11751175 -1.264380455 2
-8.994311333 -8.329890251 2
5.450983524 10.99355888 2
-12.13409328 -1.876110315 2
-5.403557777 11.03614998 2
5.722736835 -10.95579815 2
-12.14822006 -2.401815653 2
-9.215763092 -8.299432755 2
-7.843626976 -9.64846611 2
-12.15994549 -2.840243101 2
-5.424848557 -11.2928381 2
-8.198037148 -9.517586708 2
-6.953830242 -10.51027203 2
-8.496963501 -9.406840324 2
-7.163433075 -10.54274368 2
-8.743988037 -9.315148354 2
0.02706456929 -12.78488445 2
0.01845950633 -12.8352356 2
0.1506383121 -12.83673763 2
-8.945878983 -9.240119934 2
7.379532337 10.5878973 2
-9.109800339 -9.179150581 2
-7.340977192 10.6476965 2
-9.24233532 -9.129827499 2
1.935117602 -12.85204792 2
-6.388319969 -11.33703423 2
-7.601552486 -10.60783195 2
7.653103828 -10.5884676 2
-13.06911373 -0.6565275788 2
-13.08664894 -0.1821983755 2
-13.09450626 -0.03942923248 2
-1.787191987 -12.99012756 2
-13.11097622 0.7651031613 2
-13.11032963 -1.168549657 2
-13.11770248 -1.697527528 2
-13.14008617 2.045688152 2
-13.12393188 -2.148114204 2
1.938494802 -13.17629337 2
-13.13961887 2.232419729 2
11.18754005 7.315648556 2
-13.12907887 -2.522184134 2
3.522685289 12.93492985 2
-3.494213104 12.94840622 2
-13.13328266 -2.828651428 2
3.774396896 -12.89946938 2
-7.126296043 -11.46018124 2
-11.20753002 7.532524109 2
11.35556221 -7.368332863 2
-8.491867065 -10.5435276 2
-8.247238159 -10.73776054 2
-8.695357323 -10.38143826 2
-8.862215042 -10.24826622 2
-5.774079323 -12.25819874 2
-8.997934341 -10.13980675 2
-9.107782364 -10.05194378 2
-9.196404457 -9.981013298 2
-9.267745972 -9.923887253 2
-3.52917099 -13.18189049 2
3.771435261 -13.15045547 2
-13.13434982 4.079524994 2
-7.757834435 -11.54109955 2
-6.499934673 -12.29955196 2
-7.841562748 -11.54057121 2
5.381515026 12.88840675 2
-5.363186836 12.90664864 2
-14.05901146 -0.1584331691 2
-14.06289482 -0.0185907688 2
-14.05133152 -0.6223335862 2
-14.07574463 0.6497700214 2
5.730234146 -12.87539196 2
-14.06682777 -1.131886601 2
-14.0725565 -1.601343393 2
-10.14342403 -9.952135086 2
-10.0941925 -10.00818634 2
-14.07739544 -1.999124408 2
-10.03287315 -10.07796097 2
-9.956586838 -10.16470051 2
-9.86183548 -10.27232742 2
-9.744427681 -10.40549946 2
-14.08139515 -2.328592539 2
-9.599471092 -10.56958771 2
-9.421536446 -10.77039909 2
-14.08466434 -2.598209143 2
-7.260168552 -12.36418056 2
9.305527687 10.91645527 2
-8.485133171 -11.57697773 2
-14.08731842 -2.817289352 2
-9.29544735 10.9714222 2
-5.540805817 -13.32537079 2
5.727987766 -13.26350594 2
9.584999084 -10.95114422 2
-7.845131874 -12.40478802 2
7.293476105 12.76237202 2
-9.220980644 -11.46080589 2
-7.281968594 12.78419685 2
-10.22930145 -10.60836315 2
-10.42461586 -10.45245075 2
-10.58279705 -10.326087 2
2.80540514 -14.53193569 2
-10.71044064 -10.22406673 2
3.804226875 -14.31145859 2
14.80976582 -0.00339748431 2
1.820050359 -14.69839954 2
-10.81319904 -10.14190578 2
-10.89578915 -10.07585239 2
-6.487040997 -13.35223198 2
-10.96209431 -10.02281189 2
-11.01528072 -9.980259895 2
0.009080004878 14.86897182 2
7.647576332 -12.78194046 2
7.28169775 12.99959183 2
-0.1754920781 -14.95549679 2
-7.999446392 -12.65669537 2
-15.01441765 -0.1410168111 2
-15.01654148 -0.008406004868 2
-1.907095551 -14.89650631 2
-15.00827694 -0.6117105484 2
-15.0204649 0.7803647518 2
-15.0119133 -1.11441803 2
-15.0170393 -1.542476892 2
-8.612903595 -12.41856194 2
-9.940854073 -11.38573933 2
-15.02136326 -1.903838038 2
0.8753845692 -15.11684227 2
-15.02798653 2.080231667 2
-15.02493668 -2.202666044 2
-15.02781296 2.234212399 2
3.118582964 14.88127232 2
-3.109880924 14.88810444 2
-7.15564537 -13.42595959 2
-10.20045567 -11.29834843 2
-15.02785778 -2.447025299 2
4.831994057 -14.45891762 2
-15.03023052 -2.645507812 2
14.82499504 3.747667789 2
-15.03214836 -2.806036472 2
-10.41215611 -11.22732067 2
14.85886383 -3.774238586 2
5.270396709 14.43472672 2
-10.58376026 -11.16987514 2
11.19976425 10.5861702 2
-9.180015564 -12.38547325 2
3.892510653 -14.93951321 2
-3.690702677 -14.99676228 2
5.775784492 -14.32832336 2
-10.72233582 -11.12355995 2
8.726177216 12.76657772 2
-11.21497917 10.64772987 2
2.811632156 -15.22263241 2
-10.83395863 -11.08629608 2
4.865712643 -14.74853992 2
-10.92371464 -11.05635834 2
-8.617741585 -12.95774555 2
-10.99579716 -11.03233051 2
-8.065263748 -13.33729553 2
2.796413422 -15.34774971 2
2.446000099 -15.40966988 2
-15.02123547 4.417248726 2
5.036166668 14.82522488 2
1.694812894 -15.57517147 2
-9.683783531 -12.32305145 2
5.242827892 14.81812954 2
-5.244197369 14.82985878 2
9.278860092 12.70621586 2
9.2774086 12.76746178 2
-9.277056694 12.78972054 2
-9.997282982 -12.25632477 2
0.7521861792 -15.80876446 2
3.908705711 -15.38524914 2
-0.2441322654 -15.90714836 2
11.65710258 -10.83795261 2
-8.649384499 -13.372509 2
-10.25576687 -12.2015295 2
-15.95854092 -0.1319940239 2
-15.96039295 -0.002458480187 2
-7.232211113 -14.23099327 2
-15.95305157 -0.5996850133 2
-15.96611309 0.6585652232 2
9.649773598 -12.74260902 2
-15.95324135 -1.101947904 2
5.786021233 -14.92663097 2
7.494963169 -14.14623737 2
-15.95800018 -1.501089692 2
-8.821738243 -13.39781666 2
-10.46670246 -12.15692806 2
6.698755741 -14.59625053 2
-5.437958717 -15.11505985 2
[...]
POINT_DATA 35404
FIELD attributes 1
U 3 35404 float
2.404426813 0.5727254748 -0.3644906878
2.60955596 0.5967880487 -0.524490416
2.607699633 0.2402968258 -0.3513256013
2.772680998 0.1850040704 -0.4443728924
2.753614426 0.6214723587 -0.6897163987
2.452195168 -0.09443556517 -0.1238141209
2.874454498 0.08086783439 -0.5331069231
2.474594116 0.9933035374 -0.25044173
2.094192028 0.3905930519 -0.1808976382
2.527806044 -0.2164678276 -0.1903417408
2.812412739 1.049728036 -0.6472501159
2.388802767 -0.2869355679 -0.2642745078
2.835130692 0.7015295029 -0.9325719476
3.051713943 -0.009448858909 -0.5833857656
2.839677572 1.426274538 -0.4587897658
2.169910431 0.06241233274 -0.04998818412
2.159639359 0.6788944006 -0.1192549095
2.001313448 -0.2215580344 -0.04985288158
2.316661358 -0.3342185616 -0.1920417845
3.118333101 -0.05828436092 -0.6110150814
1.805814743 -0.2856611609 -0.1809297651
2.93825841 1.185843229 -0.8497673273
3.098235369 -0.4234041274 -0.2321548015
2.957335949 0.3248367012 -1.024333119
2.784768581 0.6436698437 -1.132662654
2.776004791 0.6310940981 -1.146507621
2.306081772 -0.4351004064 -0.1524095833
1.425175667 -0.3405047655 -0.4311901629
3.387636423 -0.1862327754 -0.566737771
2.864125967 0.5941441059 -1.25671649
3.093282223 0.307641387 -1.082552671
3.024306297 1.654968977 -0.6786435246
3.177874804 -0.4381519556 -0.082403332
1.250258207 -0.3189590871 -0.5086326599
1.361077785 -0.3407006562 -0.2600320578
2.102137327 -0.4019890726 0.0142302094
3.471297741 -0.1853975356 -0.5540444255
1.539568543 -0.1463065594 -0.1064970717
3.284734964 -0.4186808169 0.1867014319
2.799206734 1.281266928 -0.05798495188
3.287670612 -0.4075564742 0.1962726265
3.057306051 0.3701983392 -1.162241817
2.788468361 0.7237445116 -1.348509312
1.825530887 0.3021219373 -0.09310800582
0.9279619455 -0.3157352209 -0.7108081579
1.010190964 -0.2278044522 -0.2155721337
2.832944632 1.005558491 -1.266223073
1.810181975 -0.2053363025 0.3305238783
1.338700294 -0.3233096004 -0.3696728647
1.783810496 -0.154365465 0.3468122184
2.894314528 1.315061212 -1.137547612
0.5964517593 -0.001806787914 0.004278188106
0.5881404281 0.008056195453 0.006547561847
3.510974884 -0.008774369024 -0.4790503979
3.499383211 0.007826762274 -0.4916586876
3.270031452 -0.3267790973 0.138200134
3.394898653 0.1296678185 -0.6580915451
0.6678922176 -0.2860613763 -0.7996127009
1.858827829 -0.09973885119 0.4259652197
2.590961456 0.7703660131 0.07977998257
2.955362797 0.4663836062 -1.237582564
3.010930777 1.805021167 -0.2287548333
0.9876300097 -0.4798244536 -0.7524836659
1.739479184 0.05768314004 0.1525917351
2.721641779 0.7248530388 -1.409324646
0.5010829568 -0.1300141066 -0.4181284308
0.9483697414 -0.489394486 -0.79500103
0.6958325505 -0.4223261178 -1.142341018
1.945150018 0.4337319434 -0.02802395262
2.075506926 0.1045239717 0.0434008576
0.479377538 0.1781713068 0.03993112594
3.011686087 1.892625332 -0.8653914928
0.4489213228 -0.2171736956 -0.7009712458
0.4400337338 -0.2153188586 -0.6997843385
2.96556592 -0.1806762964 0.2964989841
1.545962453 0.08018198609 0.400970459
0.5677542686 -0.4707381725 -1.301261187
0.5476660132 -0.4667736888 -1.303856969
0.9145236015 -0.5332357287 -0.7535609603
3.365009308 0.02148649096 -0.3968676031
0.3265427947 -0.1367215216 -0.6266812086
0.2452881485 0.4358177185 0.07562197
0.6130777001 -0.576061964 -1.187376022
3.126375198 0.2139910758 -0.7771243453
2.777452707 0.4352934361 -1.252712607
1.248687983 -0.1655539274 -0.1375434995
2.582372189 0.7814272642 -1.49531734
0.4117500782 -0.4472273588 -1.366014957
0.2361799031 0.0006225911784 -0.5937722921
1.114463091 -0.3796900511 -0.37783584
2.668087482 1.231041312 -1.434218407
0 0 0
2.712396145 1.392372251 -1.399847627
0.4054588377 -0.6150383353 -1.377836704
0.2973213792 -0.3690896034 -1.295828104
0.04617355019 0.7020821571 0.1381326914
1.378384762e-015 2.834016864e-016 3.938741586e-016
0.8651599884 -0.5544461012 -0.6526663303
3.131102085 0.1031237096 -0.3181544244
0.1165468767 0.3084992468 -0.3525687456
0.4708470702 -0.7368937135 -1.243564963
0.2208088636 -0.2351966947 -1.170006871
0.2706190348 -0.6020390391 -1.462533236
2.869841337 -0.03034416959 0.3305335939
0.2576168478 -0.6025435328 -1.477796674
2.55784297 0.4594241083 -1.287594795
2.547924995 0.4594506919 -1.289555907
0.7900810242 -0.6113908887 -0.7419787049
2.509634733 0.4532270133 -1.283991098
2.897981405 1.999680996 -1.143006444
2.400231838 0.7198933959 -1.541092873
-1.908674662e-016 4.59453964e-016 2.861160829e-016
-0.001507463981 0.5328705311 0.004457811825
0.1193746105 0.04553113505 -0.7897725105
0.1423238367 -0.5438361168 -1.443959117
0.2585158944 -0.7723035812 -1.386934876
2.548360109 0.3042535186 0.1960288435
3.020877838 2.28196907 -0.4540903866
4.089430177e-015 -4.13397421e-016 1.021786115e-015
1.733820081 0.2144894898 0.2695541978
0.06603034586 -0.3889243603 -1.233611107
0.1243708879 -0.7447904944 -1.407138824
0.007784782909 0.3091918528 -0.1880770475
-5.396410842e-017 7.383658199e-016 5.863873039e-016
0.3623257577 -0.7980162501 -1.104216456
0.06114242226 -0.7345370054 -1.422347546
1.130991817 -0.0508374013 0.03858236223
2.628894091 -0.1273391992 -0.3086387515
-0.02080669627 -0.1293037236 -0.7352852821
2.3377707 0.1670842469 -0.8817312121
0.01914368756 -0.7405382395 -1.375920653
-0.09555232525 0.4540514052 0.3162904084
2.173367977 0.3337908983 -1.195027709
2.923894405 1.164656997 0.2157533914
3.015389919 -0.1835162342 0.4000169039
2.139569521 0.7347810268 -1.615692616
1.216722488 0.1898455173 0.2536769211
1.642477989 0.2418476343 -0.03257451952
-0.08817282319 -0.6409343481 -1.291952729
-0.08067987114 0.08824635297 -0.1368166059
5.831226801e-016 -1.800677696e-015 -7.351020961e-016
0.9449139237 -0.31087479 -0.2332744598
0.073361516 -0.8428137898 -1.226805925
3.406790733 -0.1612342447 0.9256337881
1.270309329 0.3428853452 0.3050109446
0.8924404979 -0.3496025503 -0.2780456543
2.846601486 0.3947819471 0.3675564528
3.05226922 1.844679117 0.04584080353
2.335042715 1.298017144 -1.573064685
-0.1635759175 -0.4727481306 -1.042281389
2.378489733 1.403863072 -1.568017244
-0.140831247 0.270139724 0.3690864444
2.178980478e-016 -2.420803785e-017 2.147938838e-016
0.9118518829 -0.2863504291 -0.2006725222
-0.1859544367 0.3719932437 0.619187355
-0.2228659093 -0.2308023572 -0.517994225
-0.1500221342 -0.7883832455 -1.194298744
0.1691714674 -0.8545561433 -1.002787232
1.848378897 0.262232691 0.04841105267
0.6003988385 -0.581032753 -0.5448688269
2.797227047e-016 -6.329551637e-016 -1.015653596e-015
1.988306403 0.1345185339 0.1044033915
-0.2200879157 -0.7403874397 -1.119623542
-0.2391850948 -0.03729007766 0.01102602389
2.232913256 -0.3133841157 -0.2566039562
2.610235929 2.133080244 -1.254414201
1.954182506 0.1182402223 -0.919069469
1.864587903 0.2380105406 -1.116678238
-0.2176873386 0.1111547351 0.3888807595
-0.3018970191 -0.6937665343 -1.048464775
-0.09232151508 -0.8815991879 -1.077205539
1.888989329 0.6044867039 -1.584492087
2.606094837 -0.4797532856 0.4025033116
-0.1954333037 0.2510184944 0.6779311895
2.885192633 -0.1228658333 0.4843673408
3.068617344 -0.3661231697 0.882992208
3.073473215 2.108634949 -0.008316333406
1.212670207 0.5110179782 0.3384845555
3.245941162 -0.1755493879 1.143924236
1.64483634e-015 -2.423249242e-015 -6.227835156e-015
-0.3998644948 -0.5268045068 -0.7604662776
-2.746298926e-016 1.445731385e-017 -9.377956378e-017
0.08003178984 -0.8291423917 -0.8498111367
-0.4118809998 -0.3616306186 -0.4010260701
-0.3195347488 -0.8228251934 -1.020056725
-0.3772701919 -0.2407971919 -0.05732312426
-0.3782532215 -0.7776147723 -0.9462188482
-0.3143378496 -0.1507993788 0.2287977487
0.9828751683 0.09493397176 0.1914570034
0.9793830514 0.09849394113 0.1952823102
0.9889861941 0.1160958111 0.2037519813
-0.2414115816 -0.07429727167 0.4963980317
2.956797123 -0.4195613563 0.537514627
-0.2284045517 -0.1541613191 0.6448262334
3.00592804 2.336403131 -0.1161933169
-1.364160961e-015 -6.107702061e-016 1.735090029e-015
1.113385797 0.3628875315 0.3101380765
-0.2228627354 -0.8776201606 -0.9090741277
-0.4906944036 -0.692455709 -0.7988516092
1.120191813 0.5603359938 0.3040631711
2.134850264 -0.6080319881 -0.1480533034
1.887550592 -0.1944785267 -0.7363724709
1.770208955 -0.05270483345 -0.9441039562
0.7639247775 -0.1723244935 -0.04380579293
1.844256401 0.4845890999 -1.496000171
2.401825666 -0.6873904467 0.3496190012
2.797768831 -0.5353742242 0.7139320374
2.066780329 1.210790157 -1.608928561
3.015977383 -0.279189527 0.9893180728
1.087961674 0.4025028944 0.2883405685
2.095635176 1.320049882 -1.629243493
2.719418287 -0.06016074866 0.2935919762
3.049998999 -0.1965527683 1.284768701
2.705753326 -0.02827141434 0.5790287852
3.039349079 1.761225343 0.2115864456
1.617965808e-015 -1.242601172e-016 6.84264555e-016
1.157353282 0.5231042504 0.2954860926
-0.4786422253 -0.8009130359 -0.7822702527
2.663380623 2.619003773 -0.7039045691
1.619725466 0.3061880469 0.289717257
-0.5012187958 -0.3573983312 -0.1376283765
-0.5605070591 -0.4653772712 -0.3897785842
-0.4481230676 -0.2995652556 0.05612047017
-0.3823632002 -0.2634398043 0.2336822301
-0.07930272073 -0.8165823817 -0.7201684117
-0.310516119 -0.2436297834 0.4000807405
-0.2726913989 -0.2609578967 0.5650424957
-0.2713752389 -0.2736077309 0.6346743107
-4.022602612e-016 -4.706283403e-016 9.15960571e-016
0.418384254 -0.4595015645 -0.3232980669
1.143917918 0.5372412205 0.269046694
2.27722311 2.091789007 -1.439447522
-0.6323338151 -0.6684972644 -0.5990255475
-0.3208530545 -0.8339992762 -0.7510909438
-0.6471787691 -0.6533575058 -0.5820083618
2.693848848 -0.5348108411 0.6691185832
3.039685488 1.962994337 0.1453498751
1.962082505 -0.4130010009 -0.7285588384
1.84531939 -0.2818520367 -0.9139546752
2.18186903 -0.8047917485 -0.1809877306
1.860365987 0.3039771914 -1.471435547
1.075828075 0.559589386 0.2245721966
2.347228289 -0.8053666353 0.2277494222
2.638523102 -0.6003959775 0.4796167314
1.521586799e-015 -3.837476812e-017 1.077581678e-014
0.04669414461 -0.04123809189 0.7196589708
2.830703497 -0.3476413488 0.6562802196
-0.0006750709726 -0.05831469223 0.728975594
-0.0782976225 -0.07408615947 0.6505141258
-0.1689016372 -0.0880792588 0.5555951595
-0.2581561506 -0.10146413 0.4507827461
2.919654608 -0.2125367373 0.9736192226
-0.3385366201 -0.1241151541 0.3348397613
-0.443700701 -0.1731822491 0.2113340795
2.941320181 -0.1666699946 1.333749175
-0.5783682466 -0.7506184578 -0.5968999863
3.183413744 -0.9507152438 0.6289257407
-0.7130392194 -0.4515173733 -0.2440379411
2.997172721e-015 -2.480926945e-016 1.469040898e-015
2.871185064 2.514109612 -0.1682261229
-0.0793203339 -0.7152653337 -0.5503814816
1.052003503 0.5287780166 0.1840189844
0.9035030007 0.5912545919 0.2314626873
-0.7167870998 -0.6473590136 -0.4405626655
2.804294348 -1.12725687 0.7214493752
-0.6123760343 -0.2580315173 0.09271794558
2.954363108 2.172782898 0.07165820152
-0.2777521312 0.003693516366 0.5045964122
-0.1923756152 0.06791998446 0.613627255
-0.1152027845 0.1157536581 0.7107332945
1.058483601 0.6083184481 0.1063514054
-0.03522233292 0.1530364603 0.7872369289
1.084444761 0.5746515989 0.07726732641
1.526807427 0.1874550134 0.005869634915
0.9749048352 0.565861702 0.161052689
0.04618372023 0.1846520305 0.8463266492
0.120199129 0.232293129 0.8971625566
-0.3470700085 -0.7877016068 -0.6138569713
0.1640242636 0.291584909 0.8674473166
-5.384121916e-017 6.252364171e-016 9.876114056e-016
2.468326807 0.8363540769 0.5710106492
0.8995991349 0.5305932164 0.1487451792
2.747923851 -1.210697651 0.7299879193
0.799729526 0.3262733519 0.2370483428
-0.7625417709 -0.6212772131 -0.3725124598
2.10472703 -0.4271941185 -1.093973398
2.011136293 -0.3072144091 -1.255195379
0.5878615379 -0.0182204321 0.1380054802
2.263818502 -0.8209406734 -0.5452672839
1.954989314 0.3465899527 -1.725017548
2.341728926 -0.8252479434 -0.1353596747
2.530774832 -0.588588655 0.04383869097
-0.7832607627 -0.4594687223 -0.1661094278
-0.4300542176 -0.08973032236 0.4015986621
2.688705206 -0.3554706275 0.1483639628
0.8764596581 0.5058174133 0.1909054667
1.90343821 1.184536219 -1.769000292
2.793117762 -0.2099255919 0.3411944807
1.892165065 1.284803152 -1.772826314
2.148855448 -0.2360663265 0.737549305
2.871040106 1.46623373 0.4256309569
-0.6008488536 -0.7174111605 -0.4583117068
-0.3127513826 0.01803451031 0.5750196576
2.861228704 -0.1328792274 0.7775606513
1.058223248 0.4786143899 -0.01039689686
2.86960268 -0.1056874394 1.182017565
1.869638085 0.1844539344 0.1071556062
1.848334523e-015 -1.279357505e-016 1.043553803e-015
-0.2447898835 0.09567176551 0.6929593682
1.8802917 0.113499321 0.1235787347
2.256188631 -1.0130409 0.7791427374
-0.1861447096 0.1670559347 0.7953181267
3.471294641 -1.195955992 0.6033177376
-0.7254462838 -0.3387254179 0.04669044539
1.087563872 0.4817976058 -0.03432610631
0.2500943542 -0.3442189097 -0.07848161459
0.9748507142 0.4229851067 -0.001466282178
-0.1306202561 0.2317602783 0.8787654638
3.042748451 -1.62064755 0.7129550576
2.612709761 2.661112309 -0.2875748575
1.055446982 0.5499946475 -0.0190150626
-0.08134681731 0.2944948673 0.956445694
1.054913878 0.4265933335 -0.05094396695
-0.06103439257 0.3318907619 0.9619988203
-0.816388309 -0.4811257124 -0.1356013268
1.638929873e-016 -8.863898038e-016 -2.694967035e-015
-0.7933699489 -0.617329061 -0.2937710881
1.051468849 0.5447116494 -0.0418295525
1.018625617 0.555100143 -0.0227036979
1.914967418 2.150091887 -1.457414389
2.148203611 -1.044113278 0.8008295298
0.9268113971 0.6045932174 0.006463286933
-0.5996081829 -0.2347761095 0.2568438947
2.148483515 -1.130530596 0.8077124953
2.962874889 1.66990757 0.3339722753
3.136255741 -1.782161236 0.7066748738
3.134722233 -1.810471177 0.7093719244
2.785526037 2.326588392 0.008048009127
-0.4789531231 -0.1753687412 0.4118635058
0.8245581388 0.5304941535 0.09449004382
1.089546204 0.4439885616 -0.1124404594
0.725769937 0.4438624084 0.1597877294
0.8043211102 0.5442667603 0.1962813884
-0.8347830772 -0.4991777539 -0.1124009788
-0.3826086819 -0.1381860673 0.5461699963
2.105244875 -0.2322108001 -1.801812172
2.045409918 -0.1238434836 -1.920809031
-0.66138345 -0.641654253 -0.3078772128
2.197543144 -0.5711089969 -1.388290405
1.950160742 0.3700224161 -2.092964888
0.6869342923 0.4895601273 0.0703997612
2.226475716 -0.6522775292 -0.9782310128
0.9721264243 0.3258394599 -0.07479474694
0.8033624291 0.3539636433 0.02117063105
2.375538349 -0.52188164 -0.7380229831
-0.8219570518 -0.4710194468 -0.06297411025
-0.29316172 -0.1097061858 0.6816337705
0.8657796383 0.3176048398 -0.04827337712
-0.1880608052 -0.5573233962 -0.2613812387
2.50553751 -0.3481885195 -0.6172245741
2.587452412 -0.2098879814 -0.4894850552
-0.2062890083 -0.08560118824 0.8059715629
2.642889738 -0.1178684607 -0.2366586328
1.000594974 0.5836932063 -0.2222114652
2.673279285 -0.06710128486 0.2861819267
2.633852959 -0.08555629104 0.7926130295
-0.1282266825 -0.06116120145 0.9262964725
3.263972521 -1.947502017 0.6989142299
0.8993700147 0.6326150298 -0.1838855296
-1.046389629e-016 1.3604824e-017 2.561773857e-016
0.8280960321 0.6653978825 -0.1599381268
-0.094703421 -0.0587339513 0.961376369
4.415795836e-016 5.090633073e-016 -1.878857567e-015
1.041616917 0.3321990073 -0.1586768031
-0.8011368513 -0.3978169262 0.06745029241
2.743666172 2.169311762 0.08045612276
2.901557684 1.856680989 0.259349227
-0.8315095901 -0.5523795485 -0.1683603525
1.114135861 0.4251213968 -0.3056381941
-0.6986842752 -0.3212103546 0.2163254321
0.8061680198 0.6543055177 -0.2234462202
0.7120904326 0.5648590326 -0.1075210348
0.5935519338 0.4703851938 -0.006094614975
3.002419472 -0.2122904658 0.3707050681
0.73878932 0.2609863877 -0.07216088474
-0.5870538354 -0.3034936488 0.3270289004
0.957693398 0.2227133811 -0.1628083885
1.094132304 0.7225548029 -0.4817284346
1.433912516 0.3006027639 0.2655239701
0.8434573412 0.1859257519 -0.1135376021
-0.5003182888 -0.3065627515 0.4332998693
0.4815661907 0.3467182815 0.04606835917
-0.6655322313 -0.5682324171 -0.1993743479
1.944269061 2.724150658 -0.8807775378
-0.4274691343 -0.3238542974 0.5371980667
0.3779753745 0.1425801814 0.1137116477
-0.8793851733 -0.4534604847 -0.007514874451
-0.358420521 -0.34538427 0.6346992254
1.815677881 0.02347029932 -2.434307337
1.777941108 0.1101260483 -2.472607136
1.886584878 -0.2492227256 -2.282205343
1.657616854 0.5580332875 -2.315223455
1.945032716 -0.3699153364 -2.063016653
-0.2961606979 -0.3655037284 0.7353246808
2.072522402 -0.3743896782 -1.82162416
-0.2682855129 -0.3960140347 0.7611134648
2.847193956 1.73746407 0.3143767118
-0.8697410226 -0.4298493564 0.0337963067
2.167113066 -0.2976959646 -1.654820561
4.136802506e-016 6.459343554e-016 -5.114309761e-016
3.502139807 -2.202723742 0.6786051393
0.8240671158 0.1354704499 -0.1456076354
2.219802618 -0.198216334 -1.496111512
1.531061411 1.244061947 -1.974716187
2.532074451 2.456537724 -0.05135665461
1.51023972 1.331326246 -1.932250261
0.6311829686 0.5496169925 -0.2333939075
3.785324335 -1.532309651 0.6276253462
2.245301723 -0.1109408885 -1.272386312
3.490062475 -2.224430323 0.6779904366
2.249729633 -0.03642536327 -0.8674541712
0.8593989611 0.1881628335 -0.2479826361
2.30314064 2.757161379 -0.323454231
2.215755939 -0.07096367329 -0.06912592053
5.81506033e-015 -5.915639458e-016 4.588055603e-015
0.7604039907 0.6225348115 -0.3475170732
1.161330462 0.546579659 -0.5096311569
1.372728705 -0.9979738593 0.7922851443
2.692142487 1.259736419 0.6133692861
1.131833792 0.8952343464 -0.6256796122
2.514110565 2.395771503 -0.01998098753
2.19952774 -2.473060369 0.757145524
0.7650734782 0.1123107448 -0.1462649405
0.5516812205 0.4574337602 0.02534076758
-0.8527254462 -0.4856041074 -0.0657568872
0.07784434408 -0.1678159237 0.06675756723
0.5863784552 0.5477422476 -0.3042000532
2.805025339 1.643776059 0.3575050533
-0.8501242995 -0.3767778575 0.1376368701
1.385273337 -1.500277519 0.7637916207
1.490301728 2.051927805 -1.55182898
0.5537830591 0.5215610862 -0.2805995047
2.754239082 1.736944318 0.3227861226
2.415088177 -2.824634552 0.658495307
0.5878534317 0.1613124907 -0.1324801743
2.668128014 1.868799329 0.2553774714
2.741876602 -2.940445185 0.6473743916
0.4708075821 0.4807481766 -0.2268587351
0.67103374 0.06769800186 -0.141941011
1.403501391 -2.006831646 0.7300422192
0.8180826306 0.7490566969 -0.5482545495
0.5035675764 0.2832739353 -0.09255567193
1.168322884e-017 2.730040294e-017 -1.361171296e-018
2.775699854 1.230780602 0.5462938547
0.3692942262 0.3566952944 -0.1118701622
-0.8964939713 -0.4223413169 0.05589373782
1.978600144 -2.820207834 0.6933977604
-0.7366107106 -0.4805277586 -0.04819899797
1.500803046e-015 9.197663959e-016 -6.211998287e-016
2.80984211 1.388036966 0.4889605343
-0.3080580533 -0.3637560606 -0.01277140155
1.342533946 0.1894692332 -2.740488529
0.6945540309 -0.0274826847 -0.1981878877
1.319537163 0.2621161342 -2.717817783
1.376660705 -0.04326554015 -2.782251596
2.548276901 1.945712328 0.2435749471
2.986653805 -3.082457542 0.6098302007
1.25902009 0.6079849601 -2.452068329
0.2612688243 0.2478309572 -0.02912722342
1.450080633 -0.153407827 -2.827498913
0.4984024465 0.1723868847 -0.1454194784
1.531316876 -0.2021742761 -2.760300875
0.4981818795 0.1654006541 -0.1501511633
2.790902615 1.396361828 0.3943940401
1.579488039 -0.1989699602 -2.657280445
-0.7423867583 -0.3193370402 0.2723365724
1.594651103 -0.1538539827 -2.497421741
1.585028052 -0.09317501634 -2.255524158
-0.6335373521 -0.3512625396 0.3472804725
1.548069 -0.04101788998 -1.868188024
0.8393312097 0.8407862186 -0.6784309149
-6.326934106e-018 -4.520211506e-017 1.357810523e-017
-0.5702039599 -0.3829640746 0.409117341
1.441699386 -0.07471890748 -1.184868455
2.199647903 -3.080727577 0.6837230921
0.6514139771 -0.1263747066 -0.1782920808
-1.128954523e-015 1.50299882e-016 9.288621533e-016
2.77811408 1.101948023 0.5850322247
-0.5240138769 -0.4233019948 0.4646415412
1.368525743 0.08733473718 0.01023125742
-0.4862731993 -0.4621056318 0.5140226483
0.504003942 0.01553654112 -0.1713548601
2.669404507 1.547052979 0.4052689672
-0.4532513618 -0.4943464994 0.5725130439
-0.8610118628 -0.4108989239 0.04410851002
-0.4401040077 -0.5272759199 0.5701072812
-2.42005381e-015 -2.871280543e-015 3.349581626e-015
0.505923748 0.5458166599 -0.5639057159