# vtk DataFile Version 2.0
sampleSurface
ASCII
DATASET POLYDATA
POINTS 35404 double
0.4599803984 0.3880192041 2
-1.540067673 0.2475730628 2
0.3048504889 -1.718233824 2
-1.551680207 -1.72020638 2
-3.178933144 0.5389270186 2
0.6736561656 -3.635571718 2
-3.419843912 -1.66811347 2
0.2422410399 3.904042006 2
3.930217266 0.1214704514 2
-1.57248044 -3.673998117 2
-3.430538416 2.223709822 2
-3.531101227 -3.64509511 2
-5.273013115 0.3819194436 2
-4.958120823 -1.885591745 2
-3.291619301 4.166493416 2
3.958593845 -3.620592117 2
3.873285055 3.800844908 2
0.3229209781 -5.558524609 2
-4.337604046 -3.661399603 2
-5.47265625 -1.909746528 2
-1.590793729 -5.581872463 2
-5.357131004 2.308501244 2
-5.336833954 -2.738254786 2
-5.920835018 -1.068318009 2
-6.035556316 -0.3868878484 2
-6.101776123 -0.4572493136 2
-5.126411438 -3.648892641 2
-3.534313917 -5.60133934 2
-6.41877079 -1.841985464 2
-6.708199978 -0.2786782384 2
-6.641726494 -1.014833093 2
-5.407463074 4.062570572 2
-6.203903675 -2.724880457 2
-3.977021694 -5.607653618 2
-5.215672016 -4.646425724 2
-6.084948063 -3.654696226 2
-7.193240166 -1.622988582 2
0.6390882134 -7.392074585 2
-6.955002785 -2.588940859 2
0.1365518421 7.45138073 2
-6.998565197 -2.584429026 2
-7.439209938 -0.7932418585 2
-7.540949821 0.1933520734 2
7.561660767 0.03786871955 2
-5.078250885 -5.605364799 2
-5.986850262 -4.633253574 2
-7.499882221 1.16717732 2
-6.714895725 -3.572733402 2
-1.618240595 -7.464201927 2
-6.829378128 -3.55952692 2
-7.371850967 2.284322739 2
-6.578753471 -4.58771944 2
-6.600684166 -4.584032536 2
-7.933590889 -1.457262158 2
-8.022986412 -1.447162747 2
-7.787713051 -2.472929239 2
-8.091205597 -1.235091686 2
-5.989492416 -5.606832027 2
-7.503781796 -3.457851648 2
3.739763975 7.392093182 2
-8.26829052 -0.5705341101 2
-3.512751818 7.512431145 2
-3.554807186 -7.508888245 2
3.960808277 -7.314161777 2
-8.342303276 0.3303771615 2
-6.563199043 -5.192761898 2
-3.702486515 -7.510751247 2
-5.195878029 -6.577324867 2
7.522617817 3.729494095 2
7.593370438 -3.671287537 2
-7.277588844 -4.500522614 2
-7.363973141 4.422939301 2
-6.52924633 -5.589563847 2
-6.554323673 -5.589080811 2
-8.458862305 -2.327645302 2
-8.14491272 -3.510029078 2
-5.961782455 -6.583132267 2
-6.040908337 -6.583831787 2
-3.569525003 -8.218978882 2
-8.941868782 -1.243575692 2
-7.116487503 -5.562525749 2
-7.74263525 -4.654776096 2
-5.086416721 -7.532887936 2
-9.053764343 -0.8779588938 2
-9.148927689 -0.4361501336 2
0.2335167825 -9.226256371 2
-9.240408897 0.5523197055 2
-6.623060226 -6.594257832 2
-7.531709194 -5.686749935 2
-1.6682024 -9.300085068 2
-9.303191185 1.7738657 2
-9.042258263 -2.877373934 2
-9.299059868 2.214105844 2
-6.007564545 -7.554902077 2
-7.078963757 -6.600176811 2
-8.466231346 -4.705142021 2
-9.072117805 -3.810502052 2
-3.116803646 -9.396515846 2
-9.835810661 -1.234273076 2
-8.150927544 -5.679993629 2
-5.231910229 -8.488348007 2
-7.471522808 -6.620699406 2
-6.512112617 -7.571738243 2
-9.798373222 -1.946739435 2
-6.569824219 -7.574221134 2
-10.03167057 -0.3251324296 2
-10.07553577 -0.3080334663 2
-3.581652164 -9.42457962 2
-10.16061687 -0.3097446859 2
-9.318932533 4.083062172 2
-10.19807148 0.4677408636 2
-9.102154732 -4.749143124 2
-8.684913635 -5.673846722 2
-8.008291245 -6.603420734 2
-7.108009338 -7.604050159 2
-6.03055048 -8.513634682 2
7.444404125 7.34270525 2
-7.327150822 7.529990196 2
-10.1123991 -2.864628792 2
7.646395206 -7.320446968 2
-7.514351845 -7.535068989 2
-6.456864357 -8.546655655 2
-8.466505051 -6.588655472 2
-9.131575584 -5.66855526 2
-5.142594814 -9.468654633 2
-6.668337345 -8.566674232 2
0.3439116478 -10.86949539 2
-10.86462402 -0.8973386884 2
-7.979893208 -7.509413242 2
-10.96272373 -0.4391206801 2
-6.675793171 -8.755378723 2
-8.847615242 -6.576367855 2
-11.0338335 -0.2271373868 2
0.04755436257 11.06953621 2
-11.02496052 -1.499989271 2
-11.12913513 0.6596549749 2
2.026139975 -11.00692654 2
11.21788692 0.00667675538 2
-7.185203075 -8.615885735 2
-8.3747015 -7.487856865 2
-9.160303116 -6.566282272 2
-1.711371064 -11.14720249 2
-6.126614571 -9.483847618 2
-11.09421349 -2.219393015 2
3.880213261 -10.63282299 2
-1.978752494 -11.16670418 2
3.436491489 10.87049007 2
-3.359541655 10.90602684 2
-11.23992729 1.991405964 2
-7.610854626 -8.520651817 2
-11.23893547 2.228414774 2
-8.702087402 -7.470079899 2
-11.15502071 -2.852211475 2
-1.724378586 -11.46777534 2
-8.970276833 -7.455569267 2
-8.050702095 -8.459823608 2
-6.734169006 -9.54459095 2
-5.346814156 -10.39571285 2
11.19806957 3.710614681 2
-3.526431799 -11.27906609 2
-9.188383102 -7.443796635 2
11.25697899 -3.711996794 2
-6.992781162 -9.582828522 2
-8.425731659 -8.408111572 2
-12.01160145 -0.7456405163 2
-11.22454166 4.415143013 2
-12.06852818 -0.2229208499 2
-12.09054852 -0.09006413817 2
-8.737894058 -8.36514473 2
-7.359298706 -9.640412331 2
-6.230240345 -10.41548729 2
-12.14980125 0.6191651225 2
-12.11751175 -1.264380455 2
-8.994311333 -8.329890251 2
5.450983524 10.99355888 2
-12.13409328 -1.876110315 2
-5.403557777 11.03614998 2
5.722736835 -10.95579815 2
-12.14822006 -2.401815653 2
-9.215763092 -8.299432755 2
-7.843626976 -9.64846611 2
-12.15994549 -2.840243101 2
-5.424848557 -11.2928381 2
-8.198037148 -9.517586708 2
-6.953830242 -10.51027203 2
-8.496963501 -9.406840324 2
-7.163433075 -10.54274368 2
-8.743988037 -9.315148354 2
0.02706456929 -12.78488445 2
0.01845950633 -12.8352356 2
0.1506383121 -12.83673763 2
-8.945878983 -9.240119934 2
7.379532337 10.5878973 2
-9.109800339 -9.179150581 2
-7.340977192 10.6476965 2
-9.24233532 -9.129827499 2
1.935117602 -12.85204792 2
-6.388319969 -11.33703423 2
-7.601552486 -10.60783195 2
7.653103828 -10.5884676 2
-13.06911373 -0.6565275788 2
-13.08664894 -0.1821983755 2
-13.09450626 -0.03942923248 2
-1.787191987 -12.99012756 2
-13.11097622 0.7651031613 2
-13.11032963 -1.168549657 2
-13.11770248 -1.697527528 2
-13.14008617 2.045688152 2
-13.12393188 -2.148114204 2
1.938494802 -13.17629337 2
-13.13961887 2.232419729 2
11.18754005 7.315648556 2
-13.12907887 -2.522184134 2
3.522685289 12.93492985 2
-3.494213104 12.94840622 2
-13.13328266 -2.828651428 2
3.774396896 -12.89946938 2
-7.126296043 -11.46018124 2
-11.20753002 7.532524109 2
11.35556221 -7.368332863 2
-8.491867065 -10.5435276 2
-8.247238159 -10.73776054 2
-8.695357323 -10.38143826 2
-8.862215042 -10.24826622 2
-5.774079323 -12.25819874 2
-8.997934341 -10.13980675 2
-9.107782364 -10.05194378 2
-9.196404457 -9.981013298 2
-9.267745972 -9.923887253 2
-3.52917099 -13.18189049 2
3.771435261 -13.15045547 2
-13.13434982 4.079524994 2
-7.757834435 -11.54109955 2
-6.499934673 -12.29955196 2
-7.841562748 -11.54057121 2
5.381515026 12.88840675 2
-5.363186836 12.90664864 2
-14.05901146 -0.1584331691 2
-14.06289482 -0.0185907688 2
-14.05133152 -0.6223335862 2
-14.07574463 0.6497700214 2
5.730234146 -12.87539196 2
-14.06682777 -1.131886601 2
-14.0725565 -1.601343393 2
-10.14342403 -9.952135086 2
-10.0941925 -10.00818634 2
-14.07739544 -1.999124408 2
-10.03287315 -10.07796097 2
-9.956586838 -10.16470051 2
-9.86183548 -10.27232742 2
-9.744427681 -10.40549946 2
-14.08139515 -2.328592539 2
-9.599471092 -10.56958771 2
-9.421536446 -10.77039909 2
-14.08466434 -2.598209143 2
-7.260168552 -12.36418056 2
9.305527687 10.91645527 2
-8.485133171 -11.57697773 2
-14.08731842 -2.817289352 2
-9.29544735 10.9714222 2
-5.540805817 -13.32537079 2
5.727987766 -13.26350594 2
9.584999084 -10.95114422 2
-7.845131874 -12.40478802 2
7.293476105 12.76237202 2
-9.220980644 -11.46080589 2
-7.281968594 12.78419685 2
-10.22930145 -10.60836315 2
-10.42461586 -10.45245075 2
-10.58279705 -10.326087 2
2.80540514 -14.53193569 2
-10.71044064 -10.22406673 2
3.804226875 -14.31145859 2
14.80976582 -0.00339748431 2
1.820050359 -14.69839954 2
-10.81319904 -10.14190578 2
-10.89578915 -10.07585239 2
-6.487040997 -13.35223198 2
-10.96209431 -10.02281189 2
-11.01528072 -9.980259895 2
0.009080004878 14.86897182 2
7.647576332 -12.78194046 2
7.28169775 12.99959183 2
-0.1754920781 -14.95549679 2
-7.999446392 -12.65669537 2
-15.01441765 -0.1410168111 2
-15.01654148 -0.008406004868 2
-1.907095551 -14.89650631 2
-15.00827694 -0.6117105484 2
-15.0204649 0.7803647518 2
-15.0119133 -1.11441803 2
-15.0170393 -1.542476892 2
-8.612903595 -12.41856194 2
-9.940854073 -11.38573933 2
-15.02136326 -1.903838038 2
0.8753845692 -15.11684227 2
-15.02798653 2.080231667 2
-15.02493668 -2.202666044 2
-15.02781296 2.234212399 2
3.118582964 14.88127232 2
-3.109880924 14.88810444 2
-7.15564537 -13.42595959 2
-10.20045567 -11.29834843 2
-15.02785778 -2.447025299 2
4.831994057 -14.45891762 2
-15.03023052 -2.645507812 2
14.82499504 3.747667789 2
-15.03214836 -2.806036472 2
-10.41215611 -11.22732067 2
14.85886383 -3.774238586 2
5.270396709 14.43472672 2
-10.58376026 -11.16987514 2
11.19976425 10.5861702 2
-9.180015564 -12.38547325 2
3.892510653 -14.93951321 2
-3.690702677 -14.99676228 2
5.775784492 -14.32832336 2
-10.72233582 -11.12355995 2
8.726177216 12.76657772 2
-11.21497917 10.64772987 2
2.811632156 -15.22263241 2
-10.83395863 -11.08629608 2
4.865712643 -14.74853992 2
-10.92371464 -11.05635834 2
-8.617741585 -12.95774555 2
-10.99579716 -11.03233051 2
-8.065263748 -13.33729553 2
2.796413422 -15.34774971 2
2.446000099 -15.40966988 2
-15.02123547 4.417248726 2
5.036166668 14.82522488 2
1.694812894 -15.57517147 2
-9.683783531 -12.32305145 2
5.242827892 14.81812954 2
-5.244197369 14.82985878 2
9.278860092 12.70621586 2
9.2774086 12.76746178 2
-9.277056694 12.78972054 2
-9.997282982 -12.25632477 2
0.7521861792 -15.80876446 2
3.908705711 -15.38524914 2
-0.2441322654 -15.90714836 2
11.65710258 -10.83795261 2
-8.649384499 -13.372509 2
-10.25576687 -12.2015295 2
-15.95854092 -0.1319940239 2
-15.96039295 -0.002458480187 2
-7.232211113 -14.23099327 2
-15.95305157 -0.5996850133 2
-15.96611309 0.6585652232 2
9.649773598 -12.74260902 2
-15.95324135 -1.101947904 2
5.786021233 -14.92663097 2
7.494963169 -14.14623737 2
-15.95800018 -1.501089692 2
-8.821738243 -13.39781666 2
-10.46670246 -12.15692806 2
6.698755741 -14.59625053 2
-5.437958717 -15.11505985 2
[...]
POINT_DATA 35404
FIELD attributes 1
U 3 35404 float
3.733442068 -1.512735963 0.03906616569
3.729324102 -1.576516867 0.1076524183
3.517176628 -1.442132592 0.09035465866
3.5289464 -1.494395971 0.1720817685
3.828853846 -1.647640824 0.1522285789
2.828295231 -1.235450029 0.02641302533
3.575465441 -1.482896328 0.3093565404
4.171664238 -1.572158098 -0.06256593764
3.764901638 -1.409854412 -0.02418844588
2.671669722 -1.252651572 0.1101713702
3.979190826 -1.701356649 0.05051135644
2.449350119 -1.120117784 0.2296854556
3.900336981 -1.646724582 0.1906975806
3.655777931 -1.329147577 0.4825970232
4.198660374 -1.680988789 -0.03590300307
2.937551498 -1.15647912 -0.04036326706
4.199532509 -1.455904245 -0.09627442062
1.550837636 -0.9214916229 -0.11724139
2.296973705 -0.9283517599 0.3137956262
3.680325985 -1.304702878 0.5436525345
1.038693309 -0.8244356513 -0.1138849109
4.030057907 -1.717638254 0.07248070836
3.334864616 -1.122815132 0.6270611286
3.820438623 -1.436385155 0.4412888288
3.846148252 -1.493758798 0.3046141863
3.83527112 -1.482490301 0.3172390759
2.166445971 -0.7781114578 0.408669889
0.4663537145 -0.5561440587 -0.08378510922
3.761396408 -1.258320451 0.5880464315
3.894445896 -1.50971663 0.3416007161
3.879508734 -1.4078933 0.4641902447
4.19594574 -1.729276419 -0.01518103294
3.189274311 -0.9399706721 0.6625730395
0.2191659063 -0.4145921469 -0.08754120022
0.7065326571 -0.3735817075 0.1211877614
1.736683249 -0.416367799 0.3970305622
3.765601397 -1.208213925 0.5978754759
0.5076478124 -0.5439408422 -0.1895447224
3.020307779 -0.7816902399 0.7543160319
4.794176579 -1.456817269 -0.1849008054
3.016572475 -0.7739627361 0.7608917952
3.900380135 -1.382314563 0.4627113044
3.916393757 -1.498398304 0.3189478517
3.867091894 -1.332039356 -0.06858590245
-0.2465301901 -0.1073267087 -0.06284746528
0.2923663259 -0.06757413596 0.03857574612
3.995731831 -1.562832594 0.210716188
1.29842484 -0.04806422442 0.3462407887
-0.1991193891 -0.369207114 -0.2344989479
1.279919982 -0.01970897801 0.3541974127
4.069918633 -1.686902046 0.09987711906
-0.03142499551 0.3124022484 -0.06208398193
-0.03523685783 0.3194142282 -0.06288618594
3.765890598 -1.114090681 0.656760931
3.757882357 -1.096931934 0.6749638319
2.977620602 -0.6674457192 0.8644036651
3.799740314 -1.148371458 0.6093561649
-0.5587309003 0.09158468992 -0.07214989513
1.303019643 0.0840715915 0.5027689338
4.788030624 -1.311166883 -0.2028958648
3.911408186 -1.336511374 0.4426110387
4.774680614 -1.579746246 -0.1708620638
-0.7852970958 -0.03419977799 -0.2062321603
1.495029926 -0.5943501592 -0.04912766814
3.932967424 -1.492026925 0.3262241483
-0.3704691529 0.3187710643 -0.05454001203
-0.8259464502 0.003909822088 -0.20021905
-0.9174909592 0.1646523774 -0.1515841782
4.264428139 -1.357171774 -0.1191297472
3.227283239 -1.127807498 -0.05915119871
-0.08959748596 0.4954808056 0.009970857762
4.254765511 -1.723473191 -0.02286392823
-0.5910868645 0.3135851026 -0.04907590151
-0.5920443535 0.3247616887 -0.0468548201
2.731257439 -0.5523882508 0.8303304315
1.059216857 0.1717868745 0.4880496264
-1.035024285 0.2628634274 -0.08520073444
-1.026096821 0.2840738297 -0.07469832897
-0.9078065753 0.0782597512 -0.197167933
3.738720179 -1.059074879 0.6696008444
-0.5792656541 0.4605972767 0.01120265014
-0.2386822402 0.7020025849 0.0361959599
-1.025563359 0.3106040359 -0.1144600064
3.818862915 -1.185377479 0.5365764499
3.896826982 -1.348172188 0.4360316396
-0.3199681342 -0.1739325076 -0.197086677
3.934762716 -1.498188138 0.3075580597
-0.9223328233 0.4535554945 0.01158045419
-0.5694382787 0.5967764854 0.06634832919
-0.7438119054 -0.009418220259 -0.2229704708
4.060551643 -1.605960369 0.1627741456
0 0 0
4.096457481 -1.670439005 0.117367506
-1.0902946 0.4215049744 -0.03588971123
-0.8345883489 0.5426943898 0.0877360329
-0.2692779601 0.9400573373 0.05591260269
9.008266333e-016 3.52287329e-016 4.604878736e-016
-1.015462518 0.2079155147 -0.1954289079
3.691057444 -1.000087023 0.7629284859
-0.434019357 0.7835664749 0.1117490232
-1.134805799 0.4683021307 -0.05646278709
-0.7396851182 0.6094372869 0.1732698828
-0.9999735951 0.5282831192 0.06868158281
2.960338831 -0.635700047 0.85596627
-0.9864685535 0.5421603918 0.08263587207
3.877338171 -1.305692315 0.4444368184
3.876135349 -1.306436896 0.4430778623
-1.063062906 0.2661428452 -0.1866398752
3.874097824 -1.305478811 0.4488356411
4.244719028 -1.724609971 -0.002504883334
3.913983583 -1.471247315 0.3338657022
1.012926798e-016 1.509619441e-016 -1.621139005e-016
-0.2823763192 0.9335318804 0.1702017784
-0.5693566203 0.6870536804 0.2394995391
-0.8836920857 0.6044687033 0.1967256367
-1.153377295 0.5515925288 0.02764592879
4.784959316 -1.185563564 -0.2137284875
4.740187645 -1.636275411 -0.168580085
3.518107301e-015 -6.632760844e-016 1.242929582e-015
2.128147125 -0.489649564 0.04178065062
-0.7624133825 0.630450666 0.2955867648
-1.069999218 0.6035566926 0.1163189858
-0.3604862988 0.7863420844 0.3036513031
5.78982886e-017 8.274575923e-016 -3.256601866e-016
-1.12633121 0.4941760004 -0.07264560461
-1.020913363 0.6309250593 0.1634405851
-0.6529121995 0.07774015516 -0.1232224107
3.71917963 -1.130910635 0.7169055343
-0.5956742764 0.6395016909 0.3873021007
3.80943656 -1.250427961 0.5473983288
-1.019649386 0.6269031763 0.1585082412
-0.2087162733 0.8467171788 0.3777101338
3.843604565 -1.326895475 0.4871051908
5.333178043 -1.141207814 -0.2773993313
3.563278913 -0.8701168895 0.9553541541
3.906409264 -1.491234183 0.3212734461
-0.3176504672 0.01728666015 0.04177638888
3.981077909 -1.303437471 -0.08807554841
-0.9001739621 0.6606985927 0.2797157168
-0.4179879427 0.6525794268 0.475726068
3.2672361e-016 -2.666052295e-015 -1.69309141e-016
-0.9824835658 0.2322719544 -0.2001855373
-1.126082659 0.5689532161 0.02501323074
3.258790016 -0.6116123199 1.226874232
0.1950904578 -0.04485881329 0.1562324315
-1.006174088 0.2577811182 -0.1992766261
5.287098408 -0.9430094957 -0.2824925482
5.358095169 -1.342875838 -0.292614907
4.074077606 -1.619055986 0.152871415
-0.7597280741 0.6630216837 0.4010024965
4.097759247 -1.656585693 0.1270852834
-0.2497492582 0.6952539682 0.5434479713
2.210532058e-016 -1.018142371e-017 2.139625209e-016
-0.9947250485 0.2467761338 -0.1913161725
-0.1498146951 0.7366874218 0.5619598031
-0.5951906443 0.6232169271 0.5121333003
-1.005824327 0.6191959977 0.1611415446
-1.114166856 0.5226637721 -0.07516080141
4.334820747 -1.291824222 -0.1296218187
-1.065993547 0.3563420177 -0.1964999437
2.387038107e-016 -1.197658742e-015 -8.844405162e-016
3.514585018 -1.166223884 -0.06232475489
-0.9606210589 0.6298271418 0.2151994705
-0.4338150322 0.5883284807 0.6180464625
3.715166807 -1.175034046 0.7044866085
4.275603771 -1.719335914 -0.02002831176
3.806969404 -1.268014193 0.5424681902
3.82700491 -1.311722636 0.5048704147
-0.289924711 0.574422121 0.7030553222
-0.8845438361 0.6535161138 0.2953640223
-1.105347395 0.5787264109 0.009436138906
3.888167381 -1.482504249 0.3412111104
3.585921764 -0.9715551138 0.9113395214
-0.1817660481 0.5926124454 0.7357870936
5.291982174 -0.8061953187 -0.2885308266
3.334283113 -0.7076475024 1.150321364
5.391088009 -1.384080529 -0.3123233914
0.5193883777 0.2080081403 0.2672726512
2.934598684 -0.4990349114 1.378134489
1.366219675e-015 -5.269036635e-015 -6.11492397e-015
-0.7261359692 0.6511352658 0.4475828111
-2.224798475e-016 3.807136158e-017 -9.538777494e-017
-1.045638919 0.480030477 -0.1064645872
-0.5737472773 0.5965456367 0.5773331523
-0.9754126072 0.6087012291 0.149420321
-0.4343277514 0.5411433578 0.695399642
-0.9339020252 0.6117047668 0.1927964687
-0.3128099144 0.4982558787 0.7958598733
-0.8912165761 0.2809463441 -0.0568424128
-0.8938428164 0.2843582332 -0.055625204
-0.8762862682 0.286634624 -0.04574506357
-0.2089102417 0.4755302072 0.8710509539
5.208628654 -0.8003032207 -0.2784908414
-0.151790604 0.4494321048 0.9421376586
5.28232336 -1.422316313 -0.2989499867
-8.607988738e-016 2.134225719e-015 2.01823705e-015
-0.6064652205 0.291547358 0.08278758079
-1.016796827 0.5114289522 -0.02173840441
-0.8285428286 0.6152901649 0.2818821669
1.084037185 0.4301256239 0.2458226085
3.691625357 -1.183470607 0.6902265549
3.786877155 -1.269192815 0.5374601483
3.812650204 -1.316290975 0.4959896207
-0.9917663336 0.2703104615 -0.1524760723
3.879943371 -1.493987918 0.3275328875
3.551416159 -0.9996235371 0.8841613531
3.371083736 -0.7708825469 1.076890826
4.065692425 -1.619177461 0.1608075947
3.022570848 -0.5412325859 1.303180337
-0.5890313983 0.3622781932 0.06680577248
4.084854126 -1.64925015 0.140827626
4.792422295 -1.093167067 -0.2112057656
2.559254885 -0.3860699236 1.476553202
5.385947704 -0.7032689452 -0.2950751781
5.627997398 -1.134402156 -0.3606480658
1.244322951e-015 -2.009273853e-016 6.634521085e-016
-0.3068497181 0.4192658663 0.1818701923
-0.8890297413 0.5111283064 0.09463170171
4.712349415 -1.640440226 -0.1847306043
2.707084656 -0.5273385644 0.09527417272
-0.4882563353 0.4546999931 0.6379904747
-0.5957308412 0.5499545932 0.4753694236
-0.4204488397 0.3810117841 0.7219395041
-0.3652487695 0.3197837472 0.7889761925
-0.9651644826 0.4131320119 -0.1193187684
-0.3200117946 0.2703927159 0.836520195
-0.2966966331 0.2357699126 0.8750458956
-0.3348065913 0.1792142093 0.8369785547
-3.988748294e-016 3.275572492e-016 1.200059339e-015
-0.9476470947 0.2650696039 -0.1848391294
-0.3111723065 0.4691493213 0.1511719823
4.236525536 -1.712635398 0.001639373135
-0.7957199216 0.5142737031 0.2029217035
-0.9059253335 0.4310520589 -0.05745911598
-0.7772669196 0.5197392106 0.2214500159
5.299879074 -0.6077638268 -0.2857784331
5.627778053 -1.174423933 -0.379901588
3.762424469 -1.263973713 0.550278306
3.79044795 -1.309571028 0.5099180341
3.661817551 -1.179260254 0.6956133842
3.854321957 -1.472787857 0.3571916223
0.02865998074 0.8579954505 0.18677257
3.509440899 -1.003872871 0.8766205907
3.327034235 -0.7950505018 1.038868427
-5.353467185e-015 3.510938067e-016 1.024489992e-014
-0.405814141 0.01951474138 0.693020165
3.079124689 -0.584123075 1.214197755
-0.3962004185 0.02910244837 0.7554986477
-0.3845727444 0.05229981244 0.7566053271
-0.372648865 0.08822425455 0.7498279214
-0.3662670851 0.1308332682 0.7326638699
2.653782368 -0.4002315402 1.388395786
-0.3678661287 0.1888024956 0.7041742206
-0.378980428 0.2658395767 0.6374195218
2.166060448 -0.2847930491 1.497703075
-0.785295248 0.4203580916 0.04408058524
5.197764397 -0.7162199616 -0.2781689167
-0.5705353618 0.4299767911 0.3652406633
2.046228524e-015 -3.057022904e-016 1.306144181e-015
5.286498547 -1.392729759 -0.3126519918
-0.8141476512 0.2892815173 -0.1349730492
-0.02904053405 0.987224102 0.1312088817
1.497309923 0.6333703995 0.3110079765
-0.7103703618 0.4020015597 0.1183621064
5.189282894 -0.533210814 -0.2728735507
-0.3978469968 0.3100141287 0.5176071525
5.579248428 -1.197247982 -0.3911087513
-0.2653980553 0.1398799866 0.7021351457
-0.2375544906 0.09988833219 0.7368437052
-0.218378976 0.06990965456 0.7581970096
-0.1205610335 0.6170294285 -0.07761515677
-0.2083877325 0.05062262341 0.7702594399
-0.07609831542 0.5391017199 -0.06759062409
4.0400424 -1.335658669 -0.0677478984
-0.3284834623 0.5660529733 -0.06038525701
-0.2024137974 0.03854757175 0.7746505141
-0.1975685954 0.03814361989 0.7692886591
-0.7741661668 0.3038591743 -0.07362799346
-0.191430077 0.05743122473 0.6844213009
-2.304658032e-017 1.722578612e-016 5.941221441e-016
5.042026997 -0.6084685326 -0.2082827389
0.4588497281 1.227270246 0.1828441173
5.139058113 -0.4995554984 -0.2673675716
-0.6773584485 0.3597519696 -0.09901360422
-0.6620647907 0.3662937284 0.1225661635
3.72871685 -1.251259565 0.5584959984
3.760483027 -1.296700954 0.5208818316
-0.7855008245 0.1783081889 -0.1362191141
3.6101408 -1.158473372 0.7031502128
3.842076063 -1.473426461 0.3509975672
3.438967466 -0.9815381765 0.8697161674
3.255405664 -0.7847977281 1.009727359
-0.4931173325 0.349293828 0.2967294157
-0.2733191848 0.1925510764 0.6580873728
3.018158197 -0.5913488269 1.156665921
-0.4990477562 0.4951857924 -0.07921480387
4.049124718 -1.603879452 0.1745502949
2.710312128 -0.4183808565 1.288475156
4.065621376 -1.629923463 0.1571483612
4.916206837 -0.3950058222 -0.1893564314
5.493082047 -0.7817175388 -0.3284757733
-0.6650323868 0.2863381803 -0.0009559112368
-0.201333046 0.1439346671 0.7290822268
2.246128559 -0.2760467827 1.40187192
-0.010515837 0.5886927247 -0.09373150766
1.805067182 -0.1959987581 1.456389546
4.375136375 -1.245422006 -0.1172144413
1.062645396e-015 -1.459093926e-016 8.208286066e-016
-0.1512297541 0.1158856228 0.7716888785
3.704658031 -1.318313718 -0.02789021842
4.896917343 -0.3489511609 -0.2179195732
-0.1092992276 0.0929158777 0.8022438288
5.132004261 -0.7291910052 -0.2676998973
-0.3714860082 0.2947921753 0.417889595
0.1254679859 0.5424824357 -0.1111985147
-0.7127102017 0.08884907514 -0.1512960196
-0.07503461838 1.11481297 -0.08424716443
-0.07249671221 0.07667656988 0.8216504455
5.130354404 -0.5001006722 -0.2693261504
5.205768108 -1.396033406 -0.3161171377
0.1455943435 0.7551740408 -0.1176861078
-0.04313284904 0.06924558431 0.8274559379
0.02799884789 0.5908895135 -0.1103636846
-0.03530514613 0.07892245799 0.747353673
-0.4649155736 0.2882171571 0.2463253886
9.633722608e-017 -1.995106566e-016 -2.096819897e-015
-0.5723216534 0.2854656577 0.08950842917
0.1708898693 0.7634837031 -0.1306710988
0.125736773 0.7651566863 -0.12618047
4.245991707 -1.69656074 -0.009942377917
4.809026718 -0.2965662181 -0.199245885
-0.0205404833 0.7257143855 -0.123269856
-0.2836643159 0.2396372259 0.5473703742
4.796910763 -0.2868320644 -0.1999687701
5.735962391 -0.8657003045 -0.4174047709
5.110276222 -0.4948816597 -0.2683399916
5.107628822 -0.4879574478 -0.2678619027
5.526280403 -1.181334257 -0.4033650756
-0.2356240004 0.1940607727 0.6399043798
-0.2543934882 0.5892665982 -0.1492988318
0.2187700272 0.5272169113 -0.1556502581
-0.4727141261 0.3887723088 -0.147799179
1.941708803 0.4259316325 0.3338312209
-0.4257610142 0.2497093678 0.2138140649
-0.189044714 0.1579507887 0.7123382092
3.675165415 -1.225609899 0.5730105639
3.712306261 -1.271541357 0.5381694436
-0.5040544868 0.1967815459 -0.01833794266
3.538476944 -1.126825213 0.7084565163
3.804131508 -1.4375211 0.3877355158
0.9032051563 1.245667934 0.2439718246
3.344440699 -0.9441769123 0.8610799909
-0.1020960286 1.153964639 -0.1296025217
0.1031439975 1.63863492 0.01785785519
3.147199392 -0.7500588894 0.9822338223
-0.389231354 0.2391379178 0.2432944477
-0.1437587887 0.1239871159 0.7731492519
-0.06026143208 1.549697161 -0.1131850928
-0.5615845919 0.09865640849 -0.1055412516
2.911222935 -0.5668623447 1.105678916
2.620350361 -0.4053906798 1.214341521
-0.1013180241 0.09167233855 0.8224609494
2.282665491 -0.2675912082 1.298902035
0.3292194307 0.8699483275 -0.1640370786
1.865787864 -0.1709586084 1.360701919
1.518617034 -0.1222453266 1.363672495
-0.06899917871 0.05859301984 0.8606894612
5.092427731 -0.4791189432 -0.2656342387
0.2137196213 0.8225135803 -0.135145992
-8.152360583e-017 -1.4015027e-017 1.088116126e-016
0.1340571046 0.7823936939 -0.1412244141
-0.06232417375 0.03148963675 0.8280386329
2.890675692e-016 -9.762729035e-017 -1.649692697e-015
0.06818870455 0.6448861361 -0.1601497233
-0.285575062 0.2180029303 0.3123914301
5.601961136 -1.064771295 -0.4472868145
5.738006115 -0.9332621694 -0.4641492367
-0.4146050513 0.1978501827 0.05656954274
0.3430732191 0.5612820387 -0.1601129919
-0.185911566 0.2093197703 0.4116405845
0.2381178886 0.8673259616 -0.1588947773
-0.001549668144 0.6976810098 -0.1896951795
-0.2880217731 0.4030653536 -0.1586855948
4.797220707 -1.007436514 -0.1984385848
-0.03147153556 1.740812778 -0.07460469753
-0.162956357 0.1783574373 0.4929035902
-0.1564148366 1.25053525 -0.1731557995
0.5126807094 0.9043744802 -0.154379189
3.155492544 -0.9173777103 0.1454824209
-0.1827915609 1.651132584 -0.1798683852
-0.1383756548 0.1378661096 0.5694664121
-0.3932601511 0.2237047553 -0.1395645589
-0.416372776 0.1291449815 -0.005381086376
4.658869743 -1.607150197 -0.2066357732
-0.1150115207 0.09498722106 0.6383766532
-0.4768173695 0.07631052285 -0.1279450804
-0.2922978699 0.1690264344 0.1795541644
-0.09491381794 0.05138481036 0.6967439055
3.607233524 -1.200510263 0.5812589526
3.650280476 -1.246580362 0.5493289232
3.445331335 -1.093865156 0.7108564973
3.767006874 -1.422039628 0.3868415356
3.223283291 -0.9039852619 0.8501524925
-0.08609342575 0.004287967924 0.7488060594
3.004842997 -0.7081411481 0.9564955235
-0.09580104053 -0.04674218968 0.7523351908
5.779417038 -0.8556196094 -0.5145067573
-0.2568744719 0.1625925303 0.2043664455
2.755732536 -0.5303564072 1.060822368
1.635698575e-016 1.457252688e-016 -6.009194776e-016
5.063508034 -0.4631445408 -0.2613273263
-0.2315479368 1.70117414 -0.1949420571
2.472411394 -0.3792194724 1.149916053
4.007013798 -1.566459417 0.2104932368
5.479053497 -1.165969849 -0.4113026261
4.027558804 -1.597418547 0.1910332143
0.1744051129 0.799490869 -0.1896125674
5.121652126 -0.6503356695 -0.2642201185
2.162996531 -0.251907289 1.218338251
5.050007343 -0.4557932913 -0.2598448396
1.844880581 -0.1524955779 1.260561347
0.03581276909 0.6564670205 -0.1602642089
5.211324692 -1.346303105 -0.341091454
1.481373668 -0.09635308385 1.269888639
2.763869354e-015 -2.316929984e-016 2.543926873e-015
0.3857088387 0.9898298979 -0.1844361722
0.4327457547 0.5750063658 -0.1508031487
4.370893955 -0.08959741145 -0.07667504251
4.614343166 -0.4102750719 -0.172593087
0.5892198086 0.9608097076 -0.1821402013
5.510564804 -1.121477127 -0.4288266301
4.421761036 -0.1394832581 -0.2016297132
-0.2500540018 1.762637854 -0.1941733658
1.196824193 1.146802425 0.3184407949
-0.3386441171 0.1242691725 0.07145483792
-0.4481601715 -0.0333554633 -0.08028706163
0.2512855232 0.8369901776 -0.1821082383
5.808951378 -0.8169507384 -0.5446561575
-0.1753889769 0.1446878612 0.2609744072
4.285678864 -0.04107157141 -0.09341937304
4.18690443 -1.671548963 0.03069222346
0.2047221214 0.7690912485 -0.1790228486
5.8268466 -0.8444129825 -0.5478784442
4.407102108 -0.1587467939 -0.1968967915
-0.1318423301 1.837699175 -0.07246211171
5.764630795 -0.899525106 -0.5296725035
4.548808575 -0.2259068638 -0.2087348104
0.04962094128 0.5818268657 -0.1659736484
-0.2369398177 1.835323215 -0.1759889126
4.196311951 0.00665271515 -0.1095657572
0.5803037882 1.076123238 -0.1893971562
0.1615514308 1.718953371 0.08829720318
8.700501784e-019 6.16488198e-018 1.523592759e-018
4.736954212 -0.4660285711 -0.242068395
-0.1518699229 0.2818841636 -0.1496563256
-0.2502738237 0.1041459888 0.1663431972
4.063570499 -0.03330709413 -0.1634823382
-0.3329082727 0.07879125327 0.04193000868
2.089476094e-016 5.003053572e-016 1.669064394e-016
5.819461823 -0.7173992395 -0.5498141646
-0.3710772693 0.009935766459 0.008867269382
3.516844749 -1.17245245 0.5929167867
-0.2803934216 1.317011356 -0.2022079825
3.5667696 -1.218756318 0.563637495
3.33131814 -1.061064601 0.7097334862
5.737519741 -0.9067310691 -0.5220530629
4.528360844 -0.2280707359 -0.1951856166
3.698051453 -1.375522614 0.4265575111
-0.2893024981 0.0680674687 -0.11450468
3.083131313 -0.8652322292 0.8330426216
-0.2058590353 1.873835087 -0.02834993601
2.849675655 -0.6699549556 0.9245741367
-0.2181148976 1.879299164 -0.03559287637
5.867950916 -0.7306156754 -0.6117457747
2.597315788 -0.5002969503 1.013097882
-0.05350648239 0.1334488243 0.3307907581
2.323548079 -0.3579712808 1.086570263
2.03793335 -0.238241598 1.140816689
-0.05307586491 0.1092737764 0.4014121294
1.753184438 -0.1428343654 1.172262549
0.6374504566 1.065446258 -0.2023130506
-7.59740511e-017 7.732852296e-017 -1.573272213e-017
-0.04817517847 0.06969740242 0.4553801417
1.441398025 -0.08604220301 1.175890565
4.064168453 -0.0859483555 -0.1847830415
-0.3917416036 1.832434893 -0.2553761005
-1.452107016e-015 8.510239944e-017 -1.133034681e-015
5.030219078 -0.4796644747 -0.3151462674
-0.05136084929 0.02468973398 0.5062834024
3.947871923 -1.373453021 -0.01440233551
-0.06034122407 -0.02117334865 0.5491831899
-0.3523365855 1.890110254 -0.1707520336
5.862151146 -0.7477531433 -0.6229590774
-0.07841090858 -0.06589096785 0.5877606869
-0.2612791359 0.09803783894 0.1080165729
-0.1089285612 -0.1159372181 0.5913057327
-5.681367615e-016 -5.90230663e-016 3.437112528e-015