# vtk DataFile Version 2.0
sampleSurface
ASCII
DATASET POLYDATA
POINTS 35404 double
0.4599803984 0.3880192041 2
-1.540067673 0.2475730628 2
0.3048504889 -1.718233824 2
-1.551680207 -1.72020638 2
-3.178933144 0.5389270186 2
0.6736561656 -3.635571718 2
-3.419843912 -1.66811347 2
0.2422410399 3.904042006 2
3.930217266 0.1214704514 2
-1.57248044 -3.673998117 2
-3.430538416 2.223709822 2
-3.531101227 -3.64509511 2
-5.273013115 0.3819194436 2
-4.958120823 -1.885591745 2
-3.291619301 4.166493416 2
3.958593845 -3.620592117 2
3.873285055 3.800844908 2
0.3229209781 -5.558524609 2
-4.337604046 -3.661399603 2
-5.47265625 -1.909746528 2
-1.590793729 -5.581872463 2
-5.357131004 2.308501244 2
-5.336833954 -2.738254786 2
-5.920835018 -1.068318009 2
-6.035556316 -0.3868878484 2
-6.101776123 -0.4572493136 2
-5.126411438 -3.648892641 2
-3.534313917 -5.60133934 2
-6.41877079 -1.841985464 2
-6.708199978 -0.2786782384 2
-6.641726494 -1.014833093 2
-5.407463074 4.062570572 2
-6.203903675 -2.724880457 2
-3.977021694 -5.607653618 2
-5.215672016 -4.646425724 2
-6.084948063 -3.654696226 2
-7.193240166 -1.622988582 2
0.6390882134 -7.392074585 2
-6.955002785 -2.588940859 2
0.1365518421 7.45138073 2
-6.998565197 -2.584429026 2
-7.439209938 -0.7932418585 2
-7.540949821 0.1933520734 2
7.561660767 0.03786871955 2
-5.078250885 -5.605364799 2
-5.986850262 -4.633253574 2
-7.499882221 1.16717732 2
-6.714895725 -3.572733402 2
-1.618240595 -7.464201927 2
-6.829378128 -3.55952692 2
-7.371850967 2.284322739 2
-6.578753471 -4.58771944 2
-6.600684166 -4.584032536 2
-7.933590889 -1.457262158 2
-8.022986412 -1.447162747 2
-7.787713051 -2.472929239 2
-8.091205597 -1.235091686 2
-5.989492416 -5.606832027 2
-7.503781796 -3.457851648 2
3.739763975 7.392093182 2
-8.26829052 -0.5705341101 2
-3.512751818 7.512431145 2
-3.554807186 -7.508888245 2
3.960808277 -7.314161777 2
-8.342303276 0.3303771615 2
-6.563199043 -5.192761898 2
-3.702486515 -7.510751247 2
-5.195878029 -6.577324867 2
7.522617817 3.729494095 2
7.593370438 -3.671287537 2
-7.277588844 -4.500522614 2
-7.363973141 4.422939301 2
-6.52924633 -5.589563847 2
-6.554323673 -5.589080811 2
-8.458862305 -2.327645302 2
-8.14491272 -3.510029078 2
-5.961782455 -6.583132267 2
-6.040908337 -6.583831787 2
-3.569525003 -8.218978882 2
-8.941868782 -1.243575692 2
-7.116487503 -5.562525749 2
-7.74263525 -4.654776096 2
-5.086416721 -7.532887936 2
-9.053764343 -0.8779588938 2
-9.148927689 -0.4361501336 2
0.2335167825 -9.226256371 2
-9.240408897 0.5523197055 2
-6.623060226 -6.594257832 2
-7.531709194 -5.686749935 2
-1.6682024 -9.300085068 2
-9.303191185 1.7738657 2
-9.042258263 -2.877373934 2
-9.299059868 2.214105844 2
-6.007564545 -7.554902077 2
-7.078963757 -6.600176811 2
-8.466231346 -4.705142021 2
-9.072117805 -3.810502052 2
-3.116803646 -9.396515846 2
-9.835810661 -1.234273076 2
-8.150927544 -5.679993629 2
-5.231910229 -8.488348007 2
-7.471522808 -6.620699406 2
-6.512112617 -7.571738243 2
-9.798373222 -1.946739435 2
-6.569824219 -7.574221134 2
-10.03167057 -0.3251324296 2
-10.07553577 -0.3080334663 2
-3.581652164 -9.42457962 2
-10.16061687 -0.3097446859 2
-9.318932533 4.083062172 2
-10.19807148 0.4677408636 2
-9.102154732 -4.749143124 2
-8.684913635 -5.673846722 2
-8.008291245 -6.603420734 2
-7.108009338 -7.604050159 2
-6.03055048 -8.513634682 2
7.444404125 7.34270525 2
-7.327150822 7.529990196 2
-10.1123991 -2.864628792 2
7.646395206 -7.320446968 2
-7.514351845 -7.535068989 2
-6.456864357 -8.546655655 2
-8.466505051 -6.588655472 2
-9.131575584 -5.66855526 2
-5.142594814 -9.468654633 2
-6.668337345 -8.566674232 2
0.3439116478 -10.86949539 2
-10.86462402 -0.8973386884 2
-7.979893208 -7.509413242 2
-10.96272373 -0.4391206801 2
-6.675793171 -8.755378723 2
-8.847615242 -6.576367855 2
-11.0338335 -0.2271373868 2
0.04755436257 11.06953621 2
-11.02496052 -1.499989271 2
-11.12913513 0.6596549749 2
2.026139975 -11.00692654 2
11.21788692 0.00667675538 2
-7.185203075 -8.615885735 2
-8.3747015 -7.487856865 2
-9.160303116 -6.566282272 2
-1.711371064 -11.14720249 2
-6.126614571 -9.483847618 2
-11.09421349 -2.219393015 2
3.880213261 -10.63282299 2
-1.978752494 -11.16670418 2
3.436491489 10.87049007 2
-3.359541655 10.90602684 2
-11.23992729 1.991405964 2
-7.610854626 -8.520651817 2
-11.23893547 2.228414774 2
-8.702087402 -7.470079899 2
-11.15502071 -2.852211475 2
-1.724378586 -11.46777534 2
-8.970276833 -7.455569267 2
-8.050702095 -8.459823608 2
-6.734169006 -9.54459095 2
-5.346814156 -10.39571285 2
11.19806957 3.710614681 2
-3.526431799 -11.27906609 2
-9.188383102 -7.443796635 2
11.25697899 -3.711996794 2
-6.992781162 -9.582828522 2
-8.425731659 -8.408111572 2
-12.01160145 -0.7456405163 2
-11.22454166 4.415143013 2
-12.06852818 -0.2229208499 2
-12.09054852 -0.09006413817 2
-8.737894058 -8.36514473 2
-7.359298706 -9.640412331 2
-6.230240345 -10.41548729 2
-12.14980125 0.6191651225 2
-12.11751175 -1.264380455 2
-8.994311333 -8.329890251 2
5.450983524 10.99355888 2
-12.13409328 -1.876110315 2
-5.403557777 11.03614998 2
5.722736835 -10.95579815 2
-12.14822006 -2.401815653 2
-9.215763092 -8.299432755 2
-7.843626976 -9.64846611 2
-12.15994549 -2.840243101 2
-5.424848557 -11.2928381 2
-8.198037148 -9.517586708 2
-6.953830242 -10.51027203 2
-8.496963501 -9.406840324 2
-7.163433075 -10.54274368 2
-8.743988037 -9.315148354 2
0.02706456929 -12.78488445 2
0.01845950633 -12.8352356 2
0.1506383121 -12.83673763 2
-8.945878983 -9.240119934 2
7.379532337 10.5878973 2
-9.109800339 -9.179150581 2
-7.340977192 10.6476965 2
-9.24233532 -9.129827499 2
1.935117602 -12.85204792 2
-6.388319969 -11.33703423 2
-7.601552486 -10.60783195 2
7.653103828 -10.5884676 2
-13.06911373 -0.6565275788 2
-13.08664894 -0.1821983755 2
-13.09450626 -0.03942923248 2
-1.787191987 -12.99012756 2
-13.11097622 0.7651031613 2
-13.11032963 -1.168549657 2
-13.11770248 -1.697527528 2
-13.14008617 2.045688152 2
-13.12393188 -2.148114204 2
1.938494802 -13.17629337 2
-13.13961887 2.232419729 2
11.18754005 7.315648556 2
-13.12907887 -2.522184134 2
3.522685289 12.93492985 2
-3.494213104 12.94840622 2
-13.13328266 -2.828651428 2
3.774396896 -12.89946938 2
-7.126296043 -11.46018124 2
-11.20753002 7.532524109 2
11.35556221 -7.368332863 2
-8.491867065 -10.5435276 2
-8.247238159 -10.73776054 2
-8.695357323 -10.38143826 2
-8.862215042 -10.24826622 2
-5.774079323 -12.25819874 2
-8.997934341 -10.13980675 2
-9.107782364 -10.05194378 2
-9.196404457 -9.981013298 2
-9.267745972 -9.923887253 2
-3.52917099 -13.18189049 2
3.771435261 -13.15045547 2
-13.13434982 4.079524994 2
-7.757834435 -11.54109955 2
-6.499934673 -12.29955196 2
-7.841562748 -11.54057121 2
5.381515026 12.88840675 2
-5.363186836 12.90664864 2
-14.05901146 -0.1584331691 2
-14.06289482 -0.0185907688 2
-14.05133152 -0.6223335862 2
-14.07574463 0.6497700214 2
5.730234146 -12.87539196 2
-14.06682777 -1.131886601 2
-14.0725565 -1.601343393 2
-10.14342403 -9.952135086 2
-10.0941925 -10.00818634 2
-14.07739544 -1.999124408 2
-10.03287315 -10.07796097 2
-9.956586838 -10.16470051 2
-9.86183548 -10.27232742 2
-9.744427681 -10.40549946 2
-14.08139515 -2.328592539 2
-9.599471092 -10.56958771 2
-9.421536446 -10.77039909 2
-14.08466434 -2.598209143 2
-7.260168552 -12.36418056 2
9.305527687 10.91645527 2
-8.485133171 -11.57697773 2
-14.08731842 -2.817289352 2
-9.29544735 10.9714222 2
-5.540805817 -13.32537079 2
5.727987766 -13.26350594 2
9.584999084 -10.95114422 2
-7.845131874 -12.40478802 2
7.293476105 12.76237202 2
-9.220980644 -11.46080589 2
-7.281968594 12.78419685 2
-10.22930145 -10.60836315 2
-10.42461586 -10.45245075 2
-10.58279705 -10.326087 2
2.80540514 -14.53193569 2
-10.71044064 -10.22406673 2
3.804226875 -14.31145859 2
14.80976582 -0.00339748431 2
1.820050359 -14.69839954 2
-10.81319904 -10.14190578 2
-10.89578915 -10.07585239 2
-6.487040997 -13.35223198 2
-10.96209431 -10.02281189 2
-11.01528072 -9.980259895 2
0.009080004878 14.86897182 2
7.647576332 -12.78194046 2
7.28169775 12.99959183 2
-0.1754920781 -14.95549679 2
-7.999446392 -12.65669537 2
-15.01441765 -0.1410168111 2
-15.01654148 -0.008406004868 2
-1.907095551 -14.89650631 2
-15.00827694 -0.6117105484 2
-15.0204649 0.7803647518 2
-15.0119133 -1.11441803 2
-15.0170393 -1.542476892 2
-8.612903595 -12.41856194 2
-9.940854073 -11.38573933 2
-15.02136326 -1.903838038 2
0.8753845692 -15.11684227 2
-15.02798653 2.080231667 2
-15.02493668 -2.202666044 2
-15.02781296 2.234212399 2
3.118582964 14.88127232 2
-3.109880924 14.88810444 2
-7.15564537 -13.42595959 2
-10.20045567 -11.29834843 2
-15.02785778 -2.447025299 2
4.831994057 -14.45891762 2
-15.03023052 -2.645507812 2
14.82499504 3.747667789 2
-15.03214836 -2.806036472 2
-10.41215611 -11.22732067 2
14.85886383 -3.774238586 2
5.270396709 14.43472672 2
-10.58376026 -11.16987514 2
11.19976425 10.5861702 2
-9.180015564 -12.38547325 2
3.892510653 -14.93951321 2
-3.690702677 -14.99676228 2
5.775784492 -14.32832336 2
-10.72233582 -11.12355995 2
8.726177216 12.76657772 2
-11.21497917 10.64772987 2
2.811632156 -15.22263241 2
-10.83395863 -11.08629608 2
4.865712643 -14.74853992 2
-10.92371464 -11.05635834 2
-8.617741585 -12.95774555 2
-10.99579716 -11.03233051 2
-8.065263748 -13.33729553 2
2.796413422 -15.34774971 2
2.446000099 -15.40966988 2
-15.02123547 4.417248726 2
5.036166668 14.82522488 2
1.694812894 -15.57517147 2
-9.683783531 -12.32305145 2
5.242827892 14.81812954 2
-5.244197369 14.82985878 2
9.278860092 12.70621586 2
9.2774086 12.76746178 2
-9.277056694 12.78972054 2
-9.997282982 -12.25632477 2
0.7521861792 -15.80876446 2
3.908705711 -15.38524914 2
-0.2441322654 -15.90714836 2
11.65710258 -10.83795261 2
-8.649384499 -13.372509 2
-10.25576687 -12.2015295 2
-15.95854092 -0.1319940239 2
-15.96039295 -0.002458480187 2
-7.232211113 -14.23099327 2
-15.95305157 -0.5996850133 2
-15.96611309 0.6585652232 2
9.649773598 -12.74260902 2
-15.95324135 -1.101947904 2
5.786021233 -14.92663097 2
7.494963169 -14.14623737 2
-15.95800018 -1.501089692 2
-8.821738243 -13.39781666 2
-10.46670246 -12.15692806 2
6.698755741 -14.59625053 2
-5.437958717 -15.11505985 2
[...]
POINT_DATA 35404
FIELD attributes 1
U 3 35404 float
-0.4226015806 0.2948193252 0.5199561715
-0.5857900977 -1.247075438 0.6944054365
-0.301871568 0.6725463271 0.3441028893
-0.3989229798 -0.9105171561 0.5498828888
-0.4269993007 -2.337860584 0.6075605154
-0.1875225753 1.114300132 0.1035620049
-0.1516017169 -2.31766963 0.5752804279
-0.7495301366 -0.8880388141 0.6786966324
-0.1512213349 1.678492904 0.2325932086
-0.1191079095 -0.7858669758 0.3363881409
-0.4957496822 -2.519537687 0.5243547559
0.2864858508 -2.380556822 0.497313261
-0.1692123562 -2.577273369 0.366764009
0.1501457393 -2.262640476 0.4124265015
-0.590602994 -2.522494793 0.4681030512
-0.2522694767 1.884996295 0.003302015597
-0.4571966231 0.8614913225 0.5381146669
0.08051822335 0.5374487638 -0.007016365882
0.5133833885 -2.309227228 0.4315566421
0.2569212317 -2.27230072 0.3467265964
0.3006798923 -1.16156137 0.2226232886
-0.2966220379 -2.678789139 0.288020134
0.5127483606 -2.239618301 0.3324942589
0.1186467707 -2.265692711 0.2758660614
-0.0481235534 -2.299357414 0.2706809938
-0.03369925916 -2.272854567 0.2620202303
0.7537910342 -2.264471054 0.3608663678
0.7512221932 -2.460373402 0.4709008634
0.3767572045 -2.010524273 0.1660008281
0.1203968227 -2.198714256 0.07894434035
0.2243501395 -2.090465784 0.1040886939
-0.3719295859 -2.802988768 0.2190478146
0.5837980509 -1.926003456 0.183837235
0.8721212149 -2.388571501 0.4579753578
1.038001895 -2.200651884 0.3616415262
0.8509939909 -1.877794981 0.2169038653
0.3253266513 -1.75259459 0.04956742004
0.1112074554 0.2248328328 0.03617571667
0.5847766399 -1.511622429 0.05092043057
-1.159862876 -1.698149204 0.7176887393
0.5802067518 -1.496041656 0.04946610332
0.1137193814 -1.907201171 -0.01298504323
-0.08112865686 -2.080176592 -0.02576267347
-0.02564351633 1.668475986 0.1771220267
1.17348814 -2.232374191 0.4197805226
1.121787906 -1.814463258 0.2160488963
-0.2031580806 -2.257591963 -0.0361228995
0.8640925288 -1.385604024 0.0599091202
0.591342032 -1.547029853 0.2424575388
0.841170013 -1.332617998 0.04469123483
-0.3159796894 -2.508038759 -0.0228988789
1.107280254 -1.230141878 -0.03328147531
1.100145578 -1.217895627 -0.03988900036
0.2356737256 -1.53652513 0.009521793574
0.2251052707 -1.499603271 0.01538158301
0.4867872596 -1.218924046 0.07034664601
0.1541546434 -1.556314349 -0.01879152283
1.274912715 -1.76563251 0.2218114883
0.7488930225 -0.9778891802 -0.03096162342
-1.582296729 -0.2140153497 0.8382797241
-0.08456368744 -1.746452332 -0.06634001434
-0.5706912279 -2.642718554 0.2921082973
0.9665983915 -2.508151293 0.5150982738
-0.4105530977 1.825395465 -0.0801249817
-0.2365254462 -1.974707842 -0.08280315995
1.164171934 -1.235138297 -0.1056530923
0.9914957285 -2.477382183 0.511408627
1.261815429 -2.168391466 0.4447110593
-0.4466740191 1.173131824 0.4747935832
-0.0769354403 1.961405993 -0.04216599092
0.9134293199 -0.8603186011 -0.2048242986
-0.4596338272 -2.733792543 -0.03468415514
1.202695012 -1.264167666 -0.134662196
1.197597742 -1.241406202 -0.1491792798
0.1515704244 -0.8934603333 0.1243656129
0.4648164213 -0.529972434 -0.1594908834
1.295335531 -1.754230142 0.1585978568
1.277287126 -1.69764328 0.09694315493
0.9181043506 -2.496808052 0.5325053334
-0.08144225925 -1.461311936 0.07505470514
0.9779874086 -0.9430643916 -0.440575093
0.6946974397 -0.5634607077 -0.6086108685
1.189424276 -2.205905914 0.45425421
-0.1854582578 -1.580921292 -0.004550542217
-0.3254862428 -1.716743588 -0.04520444572
0.1857227981 -0.2639366388 0.1638531536
-0.4488610029 -1.979680419 -0.09268816561
1.114022493 -1.301283002 -0.3059947193
0.7667447329 -0.6895810366 -0.93822366
0.5644232035 -1.62465775 0.3470943272
-0.5213255882 -2.259346962 -0.15680933
0 0 0
-0.5407691598 -2.377274036 -0.1687829643
1.189632297 -1.770416975 0.1070259064
0.9055123329 -1.063018441 -0.6602523327
0.5133301616 -0.3379998803 -1.024380565
3.602719645e-016 -3.394430008e-016 -3.601001757e-016
0.7691730261 -2.265298605 0.5063862801
-0.5006543994 -1.357314825 0.2106283456
0.5157015324 -0.4328403473 -1.42054677
1.079617143 -2.123813391 0.4044806063
0.7315180898 -0.8209246993 -1.157917976
1.042801261 -1.39478159 -0.3743775487
-0.3961877823 -0.9548792243 0.3315251172
1.020840645 -1.352794766 -0.4229469299
-0.5918497443 -1.630298376 -0.06939086318
-0.6047593355 -1.631458163 -0.07047709823
0.8239893913 -2.477140427 0.5570277572
-0.636359036 -1.616387725 -0.06999865919
-0.5878415704 -2.638946772 -0.2064622939
-0.6483502984 -1.909024954 -0.1043587998
-6.993180775e-017 -1.701991344e-016 5.958145689e-016
0.3222869039 -0.2853282988 -1.763365269
0.5281489491 -0.5459716916 -1.700689673
0.776442945 -1.101371765 -0.7499914169
1.025449038 -1.759550571 0.03267874196
-2.07064271 0.6066432595 0.7933389544
-0.4839547575 -2.886374712 -0.1432221681
-3.668094972e-016 -1.224159967e-015 4.105460434e-016
-0.1981702745 2.072536469 -0.1845669597
0.6342535019 -0.8620753288 -1.197815299
0.9364911318 -1.492663026 -0.3186532855
0.3023847044 -0.335093677 -2.068388462
3.198673018e-016 -4.040819644e-016 -4.475418683e-017
0.9047626853 -2.151501656 0.395686388
0.8839169741 -1.360427737 -0.483550936
-0.1843400747 -0.09727977216 0.2135458291
-0.943405807 -1.307321548 0.1800703406
0.5181423426 -0.6173658371 -1.714138269
-0.9503515363 -1.433399677 0.002649295609
0.8691233397 -1.367281675 -0.496625036
0.1674512029 -0.2695859075 -2.15175271
-0.9626201391 -1.509315372 -0.06304117292
-0.9230673909 -1.899631143 0.5791292191
-0.9970149994 -1.06207943 0.4597649276
-0.909858048 -1.717044711 -0.1420370191
-0.8379692435 1.006578684 -0.06007963419
0.07280699909 1.484408617 0.2758334875
0.6623247862 -1.124661446 -0.7666308284
0.3538412154 -0.4208088219 -2.07687974
-1.340525724e-016 1.725659694e-015 3.751228555e-015
0.3197208643 -1.632240891 0.4243806005
0.8859452009 -1.741725564 -0.01424196176
-1.085499644 -0.8091111183 0.7653107047
-0.8186050653 1.509711385 -0.2491295487
0.3430467248 -1.743109107 0.4444151819
-2.262613058 -0.718696475 1.019229412
-0.1946873069 -2.560361624 0.03586634621
-0.8613726497 -1.934083819 -0.2001208216
0.5262266994 -0.9014179707 -1.157399416
-0.8507229686 -1.979832411 -0.2051218897
0.194121182 -0.3267464936 -2.149839878
5.769668152e-017 -1.563254891e-016 1.441645444e-016
0.2431208342 -1.636170268 0.4263291955
0.1014897004 -0.3327450752 -2.001921654
0.4483419061 -0.6997635365 -1.588902831
0.7711148262 -1.404109001 -0.4811169207
0.7220147252 -2.044134617 0.3027872443
-1.157304049 0.8977344632 0.6332829595
0.4540519416 -2.402210712 0.5496270657
-1.698457893e-016 4.934053739e-016 3.296736722e-015
0.1678405702 1.926863551 0.01287108287
0.68217206 -1.29592824 -0.6532700658
0.3386573493 -0.5352409482 -1.911422849
-1.254091382 -1.192417979 0.142279774
-0.8273160458 -2.174188852 -0.2159857154
-1.207041264 -1.298045158 -0.02802581899
-1.193157673 -1.337117195 -0.06768766791
0.2165854722 -0.4177048206 -2.075610638
0.5493564606 -1.16988945 -0.8369119167
0.6830941439 -1.740124464 -0.08193916082
-1.129806757 -1.469578743 -0.1556760371
-1.329773784 -0.9608265162 0.3958808184
0.09324551374 -0.3659572005 -2.011741877
-3.101550341 -0.110145241 1.105633736
-1.414714932 -0.6809892058 0.7245898247
-0.001444792491 -2.897148609 -0.2318350077
-0.7461140156 1.919477582 -0.3903986216
-1.527523518 -0.470882982 0.9776898623
-7.603209139e-016 2.893165969e-015 1.701552311e-014
0.4273038805 -0.9480954409 -1.23177588
9.576818538e-017 4.359776518e-017 -6.980121247e-017
0.5166176558 -2.06052351 0.3052203059
0.3873549998 -0.7724487782 -1.578932881
0.594881475 -1.456041694 -0.5704643726
0.3119884431 -0.65446347 -1.842815042
0.5378811955 -1.386113286 -0.698610127
0.2322281003 -0.5705744624 -2.035864592
-0.5746501684 -0.3476100266 0.2225068957
-0.5858080983 -0.3543972969 0.2221904248
-0.6230645776 -0.2939723432 0.1968558878
0.1186750159 -0.5126882195 -2.097090244
-3.462295771 0.2392498851 0.9602997303
0.03841540217 -0.5260398388 -2.038010597
-0.2544509172 -3.159283876 -0.3380966485
1.951541544e-016 -3.440670702e-015 -5.365918145e-015
-1.140357256 0.5485761166 -0.1417784691
0.5498269796 -1.751364827 -0.09612640738
0.4186050594 -1.255835295 -0.9228764176
-0.4039388299 2.163771629 -0.3601578474
-1.426490426 -1.066045523 0.1153593361
-1.354726911 -1.15836668 -0.03049854748
-1.330502272 -1.197432995 -0.06937008351
-0.1371243298 -1.645416975 0.4262993634
-1.23909533 -1.328437924 -0.1547038704
-1.516792297 -0.8919168115 0.3434439301
-1.623399258 -0.6449555159 0.6280097961
-1.133431554 -1.474704146 -0.2088075876
-1.747697473 -0.4120045602 0.9152991176
-1.191253781 0.4366161823 -0.1661608964
-1.120303154 -1.499136806 -0.2126088589
-3.185317039 0.6504138708 0.7724611163
-1.864489675 -0.2881538868 1.059698105
-1.62300241 -0.9122994542 0.9844381213
0.1418779641 -2.498379946 -0.1516326964
-8.187495113e-016 -1.586600045e-016 4.860318462e-016
-1.221302152 1.179863214 -0.4148034453
0.492968291 -1.567685246 -0.5168862939
-0.7252850533 -2.207952976 -0.2137524188
0.1550542563 2.148286104 -0.1572953314
0.1785797328 -0.7473216057 -1.672263026
0.2162294239 -1.011597037 -1.378906965
0.1415647268 -0.6363696456 -1.811311007
0.1120482534 -0.5451033115 -1.898155212
0.3449298739 -2.034704685 0.2658577859
0.0764921084 -0.4810510874 -1.913068652
0.06929448992 -0.4182455838 -1.787761688
0.1347254515 -0.272654295 -1.459958315
1.652625072e-016 -5.22748448e-016 -2.297065897e-015
-0.02348737419 -2.342444897 0.4966481626
-1.268935084 1.12011981 -0.4334717095
-1.050334215 -1.623603821 -0.2054238617
0.3845838308 -1.428064227 -0.872740984
0.363204062 -1.845112324 -0.05781639367
0.362880975 -1.40627265 -0.9174713492
-2.378634453 -0.3747934103 1.036376238
0.1312856376 -2.86835289 -0.2969354689
-1.495889425 -1.045039415 -0.01758333482
-1.467990041 -1.080765009 -0.05340452492
-1.579730988 -0.9589372873 0.1129750907
-1.373752236 -1.185623646 -0.1290830821
-1.016327739 1.84393239 -0.5335943699
-1.680220962 -0.8177961111 0.3119705915
-1.786217451 -0.6218027472 0.5392102599
5.059240126e-015 -5.978440598e-016 -1.897013464e-014
0.3642199934 -0.003248817986 -1.170322418
-1.917740583 -0.4161336124 0.8019733429
0.3048054874 -0.120628193 -1.509137154
0.2417152226 -0.2126446664 -1.662691355
0.1834154129 -0.295409292 -1.720006585
0.1298392564 -0.3925111592 -1.737077594
-2.040454149 -0.2630406618 1.007688046
0.08664993942 -0.4982549846 -1.716877103
0.08369442075 -0.6882986426 -1.659137487
-2.14047718 -0.1900166273 1.091760039
0.3358463645 -1.701110721 -0.481923908
-3.769820213 0.4683632553 0.7355297208
0.2247068882 -1.267633438 -1.258829474
-1.929128125e-015 -2.07077996e-016 9.763083862e-016
-0.5666145086 -3.05026412 -0.4426539838
0.07946773618 -2.173766375 0.3322270215
-1.089640975 1.838126183 -0.5769531727
-0.1396487951 2.303688049 -0.3489227891
0.2768050134 -1.634254813 -0.7727900743
-3.113091946 0.0857854262 0.953189075
0.09467914701 -1.060605049 -1.502264619
-0.1230583042 -3.288428545 -0.4187806249
0.1007161364 -0.4722889662 -1.742224097
0.1211173013 -0.3481452465 -1.801380992
0.1628486663 -0.2367386371 -1.847500324
-1.606454134 0.3146088719 -0.4879674315
0.2075973004 -0.1394136697 -1.872275114
-1.553207159 0.8509792686 -0.5734289885
-0.08162450045 1.22646606 0.4536794722
-1.4761796 -0.1368857175 -0.3148436546
0.2512021065 -0.06138196215 -1.864535093
0.2718941271 -0.00221072929 -1.767405868
0.1969938874 -1.964587569 0.03377094492
0.2521000504 0.02171251178 -1.51618278
-8.059982376e-017 -6.028716636e-017 -1.815159842e-015
0.1110230237 -1.92925024 0.2018871456
-0.5817027688 2.211068153 -0.5144138932
-2.952834129 0.04735797644 0.9477577209
-1.08070612 -0.8638165593 0.06501199305
0.2346933335 -1.659265399 -0.8040834069
-1.621860862 -0.9463412166 -0.01745795831
-1.594897151 -0.9775593877 -0.0498303771
-0.6556035876 -1.808372855 0.3237195909
-1.710355401 -0.8653936982 0.1082816944
-1.483642697 -1.060030222 -0.1359286457
-1.811727047 -0.7409868836 0.2878058255
-1.911574364 -0.581143558 0.4748132229
0.1586331576 -1.522835493 -1.161808133
0.04055035859 -0.8059247732 -1.71366179
-2.028176546 -0.4209086299 0.6908034682
-1.341857195 -0.5788010359 -0.1633320749
-1.309776187 -1.140889645 -0.1912650168
-2.15576911 -0.2768030167 0.8982244134
-1.291998506 -1.152723908 -0.194662571
-0.2365950793 -1.343657732 0.6891521811
0.3624216616 -2.388703108 -0.190583393
0.1812321693 -1.874999166 -0.3127438128
0.02635356598 -0.6384025812 -1.874714255
-2.261581659 -0.1748626977 1.037164688
-1.539895177 1.370944142 -0.7364231348
-2.342594147 -0.1269468665 1.086361051
-2.24366641 0.5945953727 0.78386724
-1.372607574e-015 -9.262720854e-017 6.395996607e-016
0.01582797244 -0.5060241222 -1.990039587
0.4061240852 1.797928452 0.09363105148
-1.054769993 -0.7185916305 0.8929303288
0.00508582592 -0.3820227385 -2.08409524
-4.000180721 0.6375003457 0.5530897379
0.02825749852 -1.407452583 -1.352620482
-1.548357487 0.7933344245 -0.6511722803
-0.4840180576 -2.362154007 0.4188160598
-1.318445206 1.851519585 -0.7572511435
0.005176717415 -0.2797237337 -2.140877485
-3.360450745 0.2785171568 0.7916018367
-0.6935856938 -2.060764551 -0.2296758145
-1.610462308 0.1126084402 -0.5704669356
-0.005257744808 -0.2170482874 -2.112698317
-1.539454818 1.380907059 -0.7651925683
-0.03854459152 -0.2025944293 -1.934553385
0.1106090918 -1.635520935 -1.08936584
9.22150476e-017 5.578535168e-016 5.40065539e-015
0.1450193077 -1.786501527 -0.7035645247
-1.630911708 0.07808817178 -0.5920812488
-1.582284331 -0.1042849645 -0.5225016475
-1.062929988 -1.221224904 -0.172302559
-0.676107049 -0.8531990051 0.8388578892
-1.501468182 -0.5304519534 -0.3957754076
-0.04700545222 -1.252535343 -1.581408262
-0.7214996219 -0.8039497137 0.8567212224
0.2609266341 -2.828180075 -0.3240302801
-3.463445187 0.3554980755 0.728402853
-3.451878071 0.3517950475 0.7276694775
-0.5346410871 -3.022137642 -0.4837695658
-0.03938461468 -1.118241549 -1.779899478
-1.303048015 -0.9651503563 -0.1678485125
-1.626195669 0.7472669482 -0.7469611764
-1.216394186 -1.168418169 -0.06022847444
0.1567206234 2.302155256 -0.2932840586
0.05117218569 -1.719594002 -1.023521066
-0.03980380297 -1.017869234 -1.938372374
-1.731128335 -0.8412382007 -0.02047491632
-1.705162406 -0.867625773 -0.05067506805
-0.01837509871 -1.981068969 -0.2395346165
-1.81850791 -0.7733642459 0.09854056686
-1.611077309 -0.9225269556 -0.1233408675
-0.1587431431 2.360417128 -0.4325037301
-1.917851806 -0.6645278335 0.2647197545
-1.376030684 1.911669612 -0.8497262597
-0.7114108801 2.248244286 -0.6705456376
-2.014222622 -0.5272418857 0.4273682237
-0.01281431876 -1.691969395 -1.101220727
-0.03809320182 -0.9356499314 -2.079346657
-1.061268091 2.201193571 -0.7938184142
-0.3156114221 -2.236776114 0.2989210784
-2.120295048 -0.3979166448 0.6084914804
-2.240739822 -0.2802401781 0.7928093076
-0.02694163471 -0.8744140863 -2.191830158
-2.356567621 -0.176900208 0.9456018209
-1.471606731 -0.3946718574 -0.5461356044
-2.44582057 -0.1031705216 1.040477753
-2.500188112 -0.069590047 1.068032026
-0.03020999022 -0.8542101383 -2.225792885
-3.522587299 0.4192197919 0.6407038569
-1.260143161 -0.7552701831 -0.3437332809
2.558743862e-016 -1.659047369e-017 1.328982518e-016
-1.232244372 -0.9599159956 -0.305464983
-0.05552351102 -0.8559283614 -2.103829861
2.885557231e-016 2.736421463e-015 4.665011934e-015
-1.608841419 1.423449874 -0.9160808921
-0.163427189 -1.621483445 -1.252594233
-0.5229943991 -3.05411768 -0.5203278065
-0.03438891098 -3.224104404 -0.4249612987
-0.06744193286 -1.896171689 -0.5842018723
-1.46079278 0.5550247431 -0.7375043631
-0.3134424984 -1.49320066 -1.481768727
-1.144616127 -1.046124697 -0.2582445443
-1.173911333 -1.318392873 -0.2281904519
-1.121436834 -1.512840867 -0.06235278398
-4.265975952 0.5780515671 0.5916193128
-0.7610588074 2.277496576 -0.7504549026
-0.3096302152 -1.408693552 -1.691658378
-1.459830046 1.986556768 -1.033311605
-1.053502321 -0.285834074 -0.3531561196
0.4843157828 2.062401533 -0.09443599731
-1.087701797 2.285188913 -0.9374807477
-0.3332642913 -1.339654326 -1.87196207
-1.057297945 -1.745612502 0.100649558
-0.1845358163 -2.040797472 -0.1271609813
-0.4716082811 -0.8875434995 -0.03537848592
-0.3517667353 -1.289514184 -2.02732873
-1.00010848 -2.088753462 0.1788883656
-0.175420329 -1.818228364 -0.9356202483
-0.3591146171 -1.260391355 -2.149370909
-1.806254029 -0.7504448891 -0.0275062602
-1.780234337 -0.7726622224 -0.05538995191
-1.898411036 -0.692184031 0.08767972887
-1.660808325 -0.8064620495 -0.1389345527
-1.998248696 -0.5955217481 0.2430128306
-0.3395379782 -1.266587973 -2.204755545
-2.095350981 -0.4726639688 0.3926901817
-0.321608752 -1.28292954 -2.121515512
-0.1011250913 -3.263984203 -0.4734416008
-0.2465415895 -1.7835747 -1.007378697
-2.200354815 -0.3591110408 0.5552535653
4.821628114e-016 1.440050031e-015 1.778968242e-015
-3.653491974 0.5441422462 0.4799529314
-1.095011473 2.309273481 -0.9956676364
-2.318756342 -0.258557409 0.7207706571
-1.431309819 -0.813652575 -0.1896398067
-0.4872725308 -1.707947135 -0.2102065831
-1.405392289 -0.8163509965 -0.1932096034
-1.086040974 -1.520838141 -0.218662113
-4.172417641 0.7631710172 0.3566844165
-2.441389799 -0.1687804013 0.866124928
-3.633586168 0.5428923965 0.4821113944
-2.546539783 -0.08750829101 0.9741843939
-1.24324882 1.279829025 -0.8608799577
-0.1874872744 -0.7343482375 0.1050890088
-2.588257551 -0.04480019212 1.025329828
-5.70154648e-015 -1.393526561e-016 2.277985633e-015
-1.096873403 -1.189284563 -0.3230675161
-1.100490808 0.4511275291 -0.5985305905
0.5792712569 -1.529430747 0.4555979967
0.561199069 -2.398809671 -0.2726590037
-0.7146438956 -0.2612980902 -0.122439079
-0.430698514 -1.574829459 -0.1909386069
-1.672534227 0.04826360568 0.9870824814
-0.9392744303 2.357673883 -0.9420973659
0.1084988043 2.376645088 -0.3828573525
-0.1681823879 -1.960696816 -0.449285239
-0.8506166935 -2.475228071 0.3027506769
-1.052330136 -1.623366356 -0.2367113978
-0.1270738542 -3.31523037 -0.5053960085
-0.4068894088 -1.701621413 -1.144260526
0.5063712597 -1.363405228 0.5533334613
-1.109797239 -0.813916564 -0.16453664
-1.041771889 -1.679571152 -0.1825034916
-0.276238054 -3.566027403 -0.5597187281
-2.070322275 0.3048217893 0.9657219648
-0.4829370975 2.326879263 -0.716253221
-0.4771137834 -3.184121847 -0.5748271942
-2.59356904 0.3387898207 0.8533781171
-1.041600585 -1.802480578 -0.1100295186
-0.6693462133 2.404724121 -0.8591538072
0.4325600266 -1.198825479 0.6661298275
-0.75220263 -0.8858889937 -0.06436891109
-0.1278592795 2.352113485 -0.5228607059
9.052243796e-019 -2.93175904e-017 2.263879682e-017
0.3784620464 -2.819570541 -0.3314358294
-1.073256373 -1.968645334 0.04735024273
-0.2522267103 -1.88202095 -0.730451107
-0.4647914767 -0.1569307745 0.9232046604
-0.3018755019 -2.08655405 -0.09722211212
-1.021536769e-015 -3.706615383e-016 3.314519994e-017
-0.01165678166 -3.475714922 -0.4780848026
-0.6643524766 -2.340557814 0.2481433153
-1.867883325 -0.6633095145 -0.03223548084
-0.9611226916 1.920903206 -0.9977262616
-1.841578722 -0.6816993356 -0.0587839447
-1.960541964 -0.6159556508 0.07589415461
-0.4821973145 -2.126944304 -0.3899432421
-2.787013292 0.4106998146 0.7028204203
-1.734899879 -0.6995897889 -0.1311068535
-1.092251897 -2.215633869 0.06679025292
-2.060239553 -0.5312680602 0.2207008302
-0.3325818479 2.293076038 -0.6582752466
-2.157675743 -0.4215570986 0.3606970608
-0.3454534113 2.286446095 -0.6661897302
-0.2330088466 -3.562991858 -0.5465070009
-2.26287055 -0.3201608658 0.5106973648
-0.6232529879 -1.579109788 -1.355674744
-2.381412029 -0.2296891809 0.6611945033
-2.506170988 -0.1512399316 0.7950665355
-0.6380868554 -1.48794055 -1.650640607
-2.622779846 -0.07854777575 0.9005691409
-0.5086639524 -0.6303925514 0.2237029374
-7.427722573e-017 1.042579966e-016 -8.082159419e-017
-0.6803005338 -1.421735644 -1.82703054
-2.669704437 -0.03132419288 0.9593268037
-0.9201675653 0.09494820237 0.9527320266
-0.756809473 2.476359367 -1.057979703
2.878842853e-015 2.667637127e-017 -9.779927112e-016
0.2276192158 -3.077968359 -0.3860060573
-0.717184484 -1.367344618 -1.97368288
0.1321745366 1.054321766 0.5954338312
-0.7466061711 -1.312139153 -2.076310158
-0.3651122153 2.372979164 -0.7636358738
-0.4135328829 -3.265000343 -0.6244308949